+ 0.5 0 1 cbr 210 ------- 0 0.0 2.0 0 0
- 0.5 0 1 cbr 210 ------- 0 0.0 2.0 0 0
+ 0.50375 0 1 cbr 210 ------- 0 0.0 2.0 1 1
- 0.50375 0 1 cbr 210 ------- 0 0.0 2.0 1 1
+ 0.5075 0 1 cbr 210 ------- 0 0.0 2.0 2 2
- 0.5075 0 1 cbr 210 ------- 0 0.0 2.0 2 2
+ 0.51125 0 1 cbr 210 ------- 0 0.0 2.0 3 3
- 0.51125 0 1 cbr 210 ------- 0 0.0 2.0 3 3
+ 0.515 0 1 cbr 210 ------- 0 0.0 2.0 4 4
- 0.515 0 1 cbr 210 ------- 0 0.0 2.0 4 4
+ 0.51875 0 1 cbr 210 ------- 0 0.0 2.0 5 5
- 0.51875 0 1 cbr 210 ------- 0 0.0 2.0 5 5
r 0.52084 0 1 cbr 210 ------- 0 0.0 2.0 0 0
+ 0.52084 1 2 cbr 210 ------- 0 0.0 2.0 0 0
- 0.52084 1 2 cbr 210 ------- 0 0.0 2.0 0 0
+ 0.5225 0 1 cbr 210 ------- 0 0.0 2.0 6 6
- 0.5225 0 1 cbr 210 ------- 0 0.0 2.0 6 6
r 0.52459 0 1 cbr 210 ------- 0 0.0 2.0 1 1
+ 0.52459 1 2 cbr 210 ------- 0 0.0 2.0 1 1
+ 0.52625 0 1 cbr 210 ------- 0 0.0 2.0 7 7
- 0.52625 0 1 cbr 210 ------- 0 0.0 2.0 7 7
r 0.52834 0 1 cbr 210 ------- 0 0.0 2.0 2 2
+ 0.52834 1 2 cbr 210 ------- 0 0.0 2.0 2 2
d 0.52834 1 2 cbr 210 ------- 0 0.0 2.0 2 2
- 0.52924 1 2 cbr 210 ------- 0 0.0 2.0 1 1
+ 0.53 0 1 cbr 210 ------- 0 0.0 2.0 8 8
- 0.53 0 1 cbr 210 ------- 0 0.0 2.0 8 8
r 0.53209 0 1 cbr 210 ------- 0 0.0 2.0 3 3
+ 0.53209 1 2 cbr 210 ------- 0 0.0 2.0 3 3
+ 0.53375 0 1 cbr 210 ------- 0 0.0 2.0 9 9
- 0.53375 0 1 cbr 210 ------- 0 0.0 2.0 9 9
r 0.53584 0 1 cbr 210 ------- 0 0.0 2.0 4 4
+ 0.53584 1 2 cbr 210 ------- 0 0.0 2.0 4 4
d 0.53584 1 2 cbr 210 ------- 0 0.0 2.0 4 4
+ 0.5375 0 1 cbr 210 ------- 0 0.0 2.0 10 10
- 0.5375 0 1 cbr 210 ------- 0 0.0 2.0 10 10
- 0.53764 1 2 cbr 210 ------- 0 0.0 2.0 3 3
r 0.53959 0 1 cbr 210 ------- 0 0.0 2.0 5 5
+ 0.53959 1 2 cbr 210 ------- 0 0.0 2.0 5 5
+ 0.54125 0 1 cbr 210 ------- 0 0.0 2.0 11 11
- 0.54125 0 1 cbr 210 ------- 0 0.0 2.0 11 11
r 0.54334 0 1 cbr 210 ------- 0 0.0 2.0 6 6
+ 0.54334 1 2 cbr 210 ------- 0 0.0 2.0 6 6
d 0.54334 1 2 cbr 210 ------- 0 0.0 2.0 6 6
+ 0.545 0 1 cbr 210 ------- 0 0.0 2.0 12 12
- 0.545 0 1 cbr 210 ------- 0 0.0 2.0 12 12
- 0.54604 1 2 cbr 210 ------- 0 0.0 2.0 5 5
r 0.54709 0 1 cbr 210 ------- 0 0.0 2.0 7 7
+ 0.54709 1 2 cbr 210 ------- 0 0.0 2.0 7 7
+ 0.54875 0 1 cbr 210 ------- 0 0.0 2.0 13 13
- 0.54875 0 1 cbr 210 ------- 0 0.0 2.0 13 13
r 0.54924 1 2 cbr 210 ------- 0 0.0 2.0 0 0
r 0.55084 0 1 cbr 210 ------- 0 0.0 2.0 8 8
+ 0.55084 1 2 cbr 210 ------- 0 0.0 2.0 8 8
d 0.55084 1 2 cbr 210 ------- 0 0.0 2.0 8 8
+ 0.5525 0 1 cbr 210 ------- 0 0.0 2.0 14 14
- 0.5525 0 1 cbr 210 ------- 0 0.0 2.0 14 14
- 0.55444 1 2 cbr 210 ------- 0 0.0 2.0 7 7
r 0.55459 0 1 cbr 210 ------- 0 0.0 2.0 9 9
+ 0.55459 1 2 cbr 210 ------- 0 0.0 2.0 9 9
+ 0.55625 0 1 cbr 210 ------- 0 0.0 2.0 15 15
- 0.55625 0 1 cbr 210 ------- 0 0.0 2.0 15 15
r 0.55764 1 2 cbr 210 ------- 0 0.0 2.0 1 1
r 0.55834 0 1 cbr 210 ------- 0 0.0 2.0 10 10
+ 0.55834 1 2 cbr 210 ------- 0 0.0 2.0 10 10
d 0.55834 1 2 cbr 210 ------- 0 0.0 2.0 10 10
+ 0.56 0 1 cbr 210 ------- 0 0.0 2.0 16 16
- 0.56 0 1 cbr 210 ------- 0 0.0 2.0 16 16
r 0.56209 0 1 cbr 210 ------- 0 0.0 2.0 11 11
+ 0.56209 1 2 cbr 210 ------- 0 0.0 2.0 11 11
d 0.56209 1 2 cbr 210 ------- 0 0.0 2.0 11 11
- 0.56284 1 2 cbr 210 ------- 0 0.0 2.0 9 9
+ 0.56375 0 1 cbr 210 ------- 0 0.0 2.0 17 17
- 0.56375 0 1 cbr 210 ------- 0 0.0 2.0 17 17
r 0.56584 0 1 cbr 210 ------- 0 0.0 2.0 12 12
+ 0.56584 1 2 cbr 210 ------- 0 0.0 2.0 12 12
r 0.56604 1 2 cbr 210 ------- 0 0.0 2.0 3 3
+ 0.5675 0 1 cbr 210 ------- 0 0.0 2.0 18 18
- 0.5675 0 1 cbr 210 ------- 0 0.0 2.0 18 18
r 0.56959 0 1 cbr 210 ------- 0 0.0 2.0 13 13
+ 0.56959 1 2 cbr 210 ------- 0 0.0 2.0 13 13
d 0.56959 1 2 cbr 210 ------- 0 0.0 2.0 13 13
- 0.57124 1 2 cbr 210 ------- 0 0.0 2.0 12 12
+ 0.57125 0 1 cbr 210 ------- 0 0.0 2.0 19 19
- 0.57125 0 1 cbr 210 ------- 0 0.0 2.0 19 19
r 0.57334 0 1 cbr 210 ------- 0 0.0 2.0 14 14
+ 0.57334 1 2 cbr 210 ------- 0 0.0 2.0 14 14
r 0.57444 1 2 cbr 210 ------- 0 0.0 2.0 5 5
+ 0.575 0 1 cbr 210 ------- 0 0.0 2.0 20 20
- 0.575 0 1 cbr 210 ------- 0 0.0 2.0 20 20
r 0.57709 0 1 cbr 210 ------- 0 0.0 2.0 15 15
+ 0.57709 1 2 cbr 210 ------- 0 0.0 2.0 15 15
d 0.57709 1 2 cbr 210 ------- 0 0.0 2.0 15 15
+ 0.57875 0 1 cbr 210 ------- 0 0.0 2.0 21 21
- 0.57875 0 1 cbr 210 ------- 0 0.0 2.0 21 21
- 0.57964 1 2 cbr 210 ------- 0 0.0 2.0 14 14
r 0.58084 0 1 cbr 210 ------- 0 0.0 2.0 16 16
+ 0.58084 1 2 cbr 210 ------- 0 0.0 2.0 16 16
+ 0.5825 0 1 cbr 210 ------- 0 0.0 2.0 22 22
- 0.5825 0 1 cbr 210 ------- 0 0.0 2.0 22 22
r 0.58284 1 2 cbr 210 ------- 0 0.0 2.0 7 7
r 0.58459 0 1 cbr 210 ------- 0 0.0 2.0 17 17
+ 0.58459 1 2 cbr 210 ------- 0 0.0 2.0 17 17
d 0.58459 1 2 cbr 210 ------- 0 0.0 2.0 17 17
+ 0.58625 0 1 cbr 210 ------- 0 0.0 2.0 23 23
- 0.58625 0 1 cbr 210 ------- 0 0.0 2.0 23 23
- 0.58804 1 2 cbr 210 ------- 0 0.0 2.0 16 16
r 0.58834 0 1 cbr 210 ------- 0 0.0 2.0 18 18
+ 0.58834 1 2 cbr 210 ------- 0 0.0 2.0 18 18
+ 0.59 0 1 cbr 210 ------- 0 0.0 2.0 24 24
- 0.59 0 1 cbr 210 ------- 0 0.0 2.0 24 24
r 0.59124 1 2 cbr 210 ------- 0 0.0 2.0 9 9
r 0.59209 0 1 cbr 210 ------- 0 0.0 2.0 19 19
+ 0.59209 1 2 cbr 210 ------- 0 0.0 2.0 19 19
d 0.59209 1 2 cbr 210 ------- 0 0.0 2.0 19 19
+ 0.59375 0 1 cbr 210 ------- 0 0.0 2.0 25 25
- 0.59375 0 1 cbr 210 ------- 0 0.0 2.0 25 25
r 0.59584 0 1 cbr 210 ------- 0 0.0 2.0 20 20
+ 0.59584 1 2 cbr 210 ------- 0 0.0 2.0 20 20
d 0.59584 1 2 cbr 210 ------- 0 0.0 2.0 20 20
- 0.59644 1 2 cbr 210 ------- 0 0.0 2.0 18 18
+ 0.5975 0 1 cbr 210 ------- 0 0.0 2.0 26 26
- 0.5975 0 1 cbr 210 ------- 0 0.0 2.0 26 26
r 0.59959 0 1 cbr 210 ------- 0 0.0 2.0 21 21
+ 0.59959 1 2 cbr 210 ------- 0 0.0 2.0 21 21
r 0.59964 1 2 cbr 210 ------- 0 0.0 2.0 12 12
+ 0.60125 0 1 cbr 210 ------- 0 0.0 2.0 27 27
- 0.60125 0 1 cbr 210 ------- 0 0.0 2.0 27 27
r 0.60334 0 1 cbr 210 ------- 0 0.0 2.0 22 22
+ 0.60334 1 2 cbr 210 ------- 0 0.0 2.0 22 22
d 0.60334 1 2 cbr 210 ------- 0 0.0 2.0 22 22
- 0.60484 1 2 cbr 210 ------- 0 0.0 2.0 21 21
+ 0.605 0 1 cbr 210 ------- 0 0.0 2.0 28 28
- 0.605 0 1 cbr 210 ------- 0 0.0 2.0 28 28
r 0.60709 0 1 cbr 210 ------- 0 0.0 2.0 23 23
+ 0.60709 1 2 cbr 210 ------- 0 0.0 2.0 23 23
r 0.60804 1 2 cbr 210 ------- 0 0.0 2.0 14 14
+ 0.60875 0 1 cbr 210 ------- 0 0.0 2.0 29 29
- 0.60875 0 1 cbr 210 ------- 0 0.0 2.0 29 29
r 0.61084 0 1 cbr 210 ------- 0 0.0 2.0 24 24
+ 0.61084 1 2 cbr 210 ------- 0 0.0 2.0 24 24
d 0.61084 1 2 cbr 210 ------- 0 0.0 2.0 24 24
+ 0.6125 0 1 cbr 210 ------- 0 0.0 2.0 30 30
- 0.6125 0 1 cbr 210 ------- 0 0.0 2.0 30 30
- 0.61324 1 2 cbr 210 ------- 0 0.0 2.0 23 23
r 0.61459 0 1 cbr 210 ------- 0 0.0 2.0 25 25
+ 0.61459 1 2 cbr 210 ------- 0 0.0 2.0 25 25
+ 0.61625 0 1 cbr 210 ------- 0 0.0 2.0 31 31
- 0.61625 0 1 cbr 210 ------- 0 0.0 2.0 31 31
r 0.61644 1 2 cbr 210 ------- 0 0.0 2.0 16 16
r 0.61834 0 1 cbr 210 ------- 0 0.0 2.0 26 26
+ 0.61834 1 2 cbr 210 ------- 0 0.0 2.0 26 26
d 0.61834 1 2 cbr 210 ------- 0 0.0 2.0 26 26
+ 0.62 0 1 cbr 210 ------- 0 0.0 2.0 32 32
- 0.62 0 1 cbr 210 ------- 0 0.0 2.0 32 32
- 0.62164 1 2 cbr 210 ------- 0 0.0 2.0 25 25
r 0.62209 0 1 cbr 210 ------- 0 0.0 2.0 27 27
+ 0.62209 1 2 cbr 210 ------- 0 0.0 2.0 27 27
+ 0.62375 0 1 cbr 210 ------- 0 0.0 2.0 33 33
- 0.62375 0 1 cbr 210 ------- 0 0.0 2.0 33 33
r 0.62484 1 2 cbr 210 ------- 0 0.0 2.0 18 18
r 0.62584 0 1 cbr 210 ------- 0 0.0 2.0 28 28
+ 0.62584 1 2 cbr 210 ------- 0 0.0 2.0 28 28
d 0.62584 1 2 cbr 210 ------- 0 0.0 2.0 28 28
+ 0.6275 0 1 cbr 210 ------- 0 0.0 2.0 34 34
- 0.6275 0 1 cbr 210 ------- 0 0.0 2.0 34 34
r 0.62959 0 1 cbr 210 ------- 0 0.0 2.0 29 29
+ 0.62959 1 2 cbr 210 ------- 0 0.0 2.0 29 29
d 0.62959 1 2 cbr 210 ------- 0 0.0 2.0 29 29
- 0.63004 1 2 cbr 210 ------- 0 0.0 2.0 27 27
+ 0.63125 0 1 cbr 210 ------- 0 0.0 2.0 35 35
- 0.63125 0 1 cbr 210 ------- 0 0.0 2.0 35 35
r 0.63324 1 2 cbr 210 ------- 0 0.0 2.0 21 21
r 0.63334 0 1 cbr 210 ------- 0 0.0 2.0 30 30
+ 0.63334 1 2 cbr 210 ------- 0 0.0 2.0 30 30
+ 0.635 0 1 cbr 210 ------- 0 0.0 2.0 36 36
- 0.635 0 1 cbr 210 ------- 0 0.0 2.0 36 36
r 0.63709 0 1 cbr 210 ------- 0 0.0 2.0 31 31
+ 0.63709 1 2 cbr 210 ------- 0 0.0 2.0 31 31
d 0.63709 1 2 cbr 210 ------- 0 0.0 2.0 31 31
- 0.63844 1 2 cbr 210 ------- 0 0.0 2.0 30 30
+ 0.63875 0 1 cbr 210 ------- 0 0.0 2.0 37 37
- 0.63875 0 1 cbr 210 ------- 0 0.0 2.0 37 37
r 0.64084 0 1 cbr 210 ------- 0 0.0 2.0 32 32
+ 0.64084 1 2 cbr 210 ------- 0 0.0 2.0 32 32
r 0.64164 1 2 cbr 210 ------- 0 0.0 2.0 23 23
+ 0.6425 0 1 cbr 210 ------- 0 0.0 2.0 38 38
- 0.6425 0 1 cbr 210 ------- 0 0.0 2.0 38 38
r 0.64459 0 1 cbr 210 ------- 0 0.0 2.0 33 33
+ 0.64459 1 2 cbr 210 ------- 0 0.0 2.0 33 33
d 0.64459 1 2 cbr 210 ------- 0 0.0 2.0 33 33
+ 0.64625 0 1 cbr 210 ------- 0 0.0 2.0 39 39
- 0.64625 0 1 cbr 210 ------- 0 0.0 2.0 39 39
- 0.64684 1 2 cbr 210 ------- 0 0.0 2.0 32 32
r 0.64834 0 1 cbr 210 ------- 0 0.0 2.0 34 34
+ 0.64834 1 2 cbr 210 ------- 0 0.0 2.0 34 34
+ 0.65 0 1 cbr 210 ------- 0 0.0 2.0 40 40
- 0.65 0 1 cbr 210 ------- 0 0.0 2.0 40 40
r 0.65004 1 2 cbr 210 ------- 0 0.0 2.0 25 25
r 0.65209 0 1 cbr 210 ------- 0 0.0 2.0 35 35
+ 0.65209 1 2 cbr 210 ------- 0 0.0 2.0 35 35
d 0.65209 1 2 cbr 210 ------- 0 0.0 2.0 35 35
+ 0.65375 0 1 cbr 210 ------- 0 0.0 2.0 41 41
- 0.65375 0 1 cbr 210 ------- 0 0.0 2.0 41 41
- 0.65524 1 2 cbr 210 ------- 0 0.0 2.0 34 34
r 0.65584 0 1 cbr 210 ------- 0 0.0 2.0 36 36
+ 0.65584 1 2 cbr 210 ------- 0 0.0 2.0 36 36
+ 0.6575 0 1 cbr 210 ------- 0 0.0 2.0 42 42
- 0.6575 0 1 cbr 210 ------- 0 0.0 2.0 42 42
r 0.65844 1 2 cbr 210 ------- 0 0.0 2.0 27 27
r 0.65959 0 1 cbr 210 ------- 0 0.0 2.0 37 37
+ 0.65959 1 2 cbr 210 ------- 0 0.0 2.0 37 37
d 0.65959 1 2 cbr 210 ------- 0 0.0 2.0 37 37
+ 0.66125 0 1 cbr 210 ------- 0 0.0 2.0 43 43
- 0.66125 0 1 cbr 210 ------- 0 0.0 2.0 43 43
r 0.66334 0 1 cbr 210 ------- 0 0.0 2.0 38 38
+ 0.66334 1 2 cbr 210 ------- 0 0.0 2.0 38 38
d 0.66334 1 2 cbr 210 ------- 0 0.0 2.0 38 38
- 0.66364 1 2 cbr 210 ------- 0 0.0 2.0 36 36
+ 0.665 0 1 cbr 210 ------- 0 0.0 2.0 44 44
- 0.665 0 1 cbr 210 ------- 0 0.0 2.0 44 44
r 0.66684 1 2 cbr 210 ------- 0 0.0 2.0 30 30
r 0.66709 0 1 cbr 210 ------- 0 0.0 2.0 39 39
+ 0.66709 1 2 cbr 210 ------- 0 0.0 2.0 39 39
+ 0.66875 0 1 cbr 210 ------- 0 0.0 2.0 45 45
- 0.66875 0 1 cbr 210 ------- 0 0.0 2.0 45 45
r 0.67084 0 1 cbr 210 ------- 0 0.0 2.0 40 40
+ 0.67084 1 2 cbr 210 ------- 0 0.0 2.0 40 40
d 0.67084 1 2 cbr 210 ------- 0 0.0 2.0 40 40
- 0.67204 1 2 cbr 210 ------- 0 0.0 2.0 39 39
+ 0.6725 0 1 cbr 210 ------- 0 0.0 2.0 46 46
- 0.6725 0 1 cbr 210 ------- 0 0.0 2.0 46 46
r 0.67459 0 1 cbr 210 ------- 0 0.0 2.0 41 41
+ 0.67459 1 2 cbr 210 ------- 0 0.0 2.0 41 41
r 0.67524 1 2 cbr 210 ------- 0 0.0 2.0 32 32
+ 0.67625 0 1 cbr 210 ------- 0 0.0 2.0 47 47
- 0.67625 0 1 cbr 210 ------- 0 0.0 2.0 47 47
r 0.67834 0 1 cbr 210 ------- 0 0.0 2.0 42 42
+ 0.67834 1 2 cbr 210 ------- 0 0.0 2.0 42 42
d 0.67834 1 2 cbr 210 ------- 0 0.0 2.0 42 42
+ 0.68 0 1 cbr 210 ------- 0 0.0 2.0 48 48
- 0.68 0 1 cbr 210 ------- 0 0.0 2.0 48 48
- 0.68044 1 2 cbr 210 ------- 0 0.0 2.0 41 41
r 0.68209 0 1 cbr 210 ------- 0 0.0 2.0 43 43
+ 0.68209 1 2 cbr 210 ------- 0 0.0 2.0 43 43
r 0.68364 1 2 cbr 210 ------- 0 0.0 2.0 34 34
+ 0.68375 0 1 cbr 210 ------- 0 0.0 2.0 49 49
- 0.68375 0 1 cbr 210 ------- 0 0.0 2.0 49 49
r 0.68584 0 1 cbr 210 ------- 0 0.0 2.0 44 44
+ 0.68584 1 2 cbr 210 ------- 0 0.0 2.0 44 44
d 0.68584 1 2 cbr 210 ------- 0 0.0 2.0 44 44
+ 0.6875 0 1 cbr 210 ------- 0 0.0 2.0 50 50
- 0.6875 0 1 cbr 210 ------- 0 0.0 2.0 50 50
- 0.68884 1 2 cbr 210 ------- 0 0.0 2.0 43 43
r 0.68959 0 1 cbr 210 ------- 0 0.0 2.0 45 45
+ 0.68959 1 2 cbr 210 ------- 0 0.0 2.0 45 45
+ 0.69125 0 1 cbr 210 ------- 0 0.0 2.0 51 51
- 0.69125 0 1 cbr 210 ------- 0 0.0 2.0 51 51
r 0.69204 1 2 cbr 210 ------- 0 0.0 2.0 36 36
r 0.69334 0 1 cbr 210 ------- 0 0.0 2.0 46 46
+ 0.69334 1 2 cbr 210 ------- 0 0.0 2.0 46 46
d 0.69334 1 2 cbr 210 ------- 0 0.0 2.0 46 46
+ 0.695 0 1 cbr 210 ------- 0 0.0 2.0 52 52
- 0.695 0 1 cbr 210 ------- 0 0.0 2.0 52 52
r 0.69709 0 1 cbr 210 ------- 0 0.0 2.0 47 47
+ 0.69709 1 2 cbr 210 ------- 0 0.0 2.0 47 47
d 0.69709 1 2 cbr 210 ------- 0 0.0 2.0 47 47
- 0.69724 1 2 cbr 210 ------- 0 0.0 2.0 45 45
+ 0.69875 0 1 cbr 210 ------- 0 0.0 2.0 53 53
- 0.69875 0 1 cbr 210 ------- 0 0.0 2.0 53 53
r 0.70044 1 2 cbr 210 ------- 0 0.0 2.0 39 39
r 0.70084 0 1 cbr 210 ------- 0 0.0 2.0 48 48
+ 0.70084 1 2 cbr 210 ------- 0 0.0 2.0 48 48
+ 0.7025 0 1 cbr 210 ------- 0 0.0 2.0 54 54
- 0.7025 0 1 cbr 210 ------- 0 0.0 2.0 54 54
r 0.70459 0 1 cbr 210 ------- 0 0.0 2.0 49 49
+ 0.70459 1 2 cbr 210 ------- 0 0.0 2.0 49 49
d 0.70459 1 2 cbr 210 ------- 0 0.0 2.0 49 49
- 0.70564 1 2 cbr 210 ------- 0 0.0 2.0 48 48
+ 0.70625 0 1 cbr 210 ------- 0 0.0 2.0 55 55
- 0.70625 0 1 cbr 210 ------- 0 0.0 2.0 55 55
r 0.70834 0 1 cbr 210 ------- 0 0.0 2.0 50 50
+ 0.70834 1 2 cbr 210 ------- 0 0.0 2.0 50 50
r 0.70884 1 2 cbr 210 ------- 0 0.0 2.0 41 41
+ 0.71 0 1 cbr 210 ------- 0 0.0 2.0 56 56
- 0.71 0 1 cbr 210 ------- 0 0.0 2.0 56 56
r 0.71209 0 1 cbr 210 ------- 0 0.0 2.0 51 51
+ 0.71209 1 2 cbr 210 ------- 0 0.0 2.0 51 51
d 0.71209 1 2 cbr 210 ------- 0 0.0 2.0 51 51
+ 0.71375 0 1 cbr 210 ------- 0 0.0 2.0 57 57
- 0.71375 0 1 cbr 210 ------- 0 0.0 2.0 57 57
- 0.71404 1 2 cbr 210 ------- 0 0.0 2.0 50 50
r 0.71584 0 1 cbr 210 ------- 0 0.0 2.0 52 52
+ 0.71584 1 2 cbr 210 ------- 0 0.0 2.0 52 52
r 0.71724 1 2 cbr 210 ------- 0 0.0 2.0 43 43
+ 0.7175 0 1 cbr 210 ------- 0 0.0 2.0 58 58
- 0.7175 0 1 cbr 210 ------- 0 0.0 2.0 58 58
r 0.71959 0 1 cbr 210 ------- 0 0.0 2.0 53 53
+ 0.71959 1 2 cbr 210 ------- 0 0.0 2.0 53 53
d 0.71959 1 2 cbr 210 ------- 0 0.0 2.0 53 53
+ 0.72125 0 1 cbr 210 ------- 0 0.0 2.0 59 59
- 0.72125 0 1 cbr 210 ------- 0 0.0 2.0 59 59
- 0.72244 1 2 cbr 210 ------- 0 0.0 2.0 52 52
r 0.72334 0 1 cbr 210 ------- 0 0.0 2.0 54 54
+ 0.72334 1 2 cbr 210 ------- 0 0.0 2.0 54 54
+ 0.725 0 1 cbr 210 ------- 0 0.0 2.0 60 60
- 0.725 0 1 cbr 210 ------- 0 0.0 2.0 60 60
r 0.72564 1 2 cbr 210 ------- 0 0.0 2.0 45 45
r 0.72709 0 1 cbr 210 ------- 0 0.0 2.0 55 55
+ 0.72709 1 2 cbr 210 ------- 0 0.0 2.0 55 55
d 0.72709 1 2 cbr 210 ------- 0 0.0 2.0 55 55
+ 0.72875 0 1 cbr 210 ------- 0 0.0 2.0 61 61
- 0.72875 0 1 cbr 210 ------- 0 0.0 2.0 61 61
- 0.73084 1 2 cbr 210 ------- 0 0.0 2.0 54 54
r 0.73084 0 1 cbr 210 ------- 0 0.0 2.0 56 56
+ 0.73084 1 2 cbr 210 ------- 0 0.0 2.0 56 56
+ 0.7325 0 1 cbr 210 ------- 0 0.0 2.0 62 62
- 0.7325 0 1 cbr 210 ------- 0 0.0 2.0 62 62
r 0.73404 1 2 cbr 210 ------- 0 0.0 2.0 48 48
r 0.73459 0 1 cbr 210 ------- 0 0.0 2.0 57 57
+ 0.73459 1 2 cbr 210 ------- 0 0.0 2.0 57 57
d 0.73459 1 2 cbr 210 ------- 0 0.0 2.0 57 57
+ 0.73625 0 1 cbr 210 ------- 0 0.0 2.0 63 63
- 0.73625 0 1 cbr 210 ------- 0 0.0 2.0 63 63
r 0.73834 0 1 cbr 210 ------- 0 0.0 2.0 58 58
+ 0.73834 1 2 cbr 210 ------- 0 0.0 2.0 58 58
d 0.73834 1 2 cbr 210 ------- 0 0.0 2.0 58 58
- 0.73924 1 2 cbr 210 ------- 0 0.0 2.0 56 56
+ 0.74 0 1 cbr 210 ------- 0 0.0 2.0 64 64
- 0.74 0 1 cbr 210 ------- 0 0.0 2.0 64 64
r 0.74209 0 1 cbr 210 ------- 0 0.0 2.0 59 59
+ 0.74209 1 2 cbr 210 ------- 0 0.0 2.0 59 59
r 0.74244 1 2 cbr 210 ------- 0 0.0 2.0 50 50
+ 0.74375 0 1 cbr 210 ------- 0 0.0 2.0 65 65
- 0.74375 0 1 cbr 210 ------- 0 0.0 2.0 65 65
r 0.74584 0 1 cbr 210 ------- 0 0.0 2.0 60 60
+ 0.74584 1 2 cbr 210 ------- 0 0.0 2.0 60 60
d 0.74584 1 2 cbr 210 ------- 0 0.0 2.0 60 60
+ 0.7475 0 1 cbr 210 ------- 0 0.0 2.0 66 66
- 0.7475 0 1 cbr 210 ------- 0 0.0 2.0 66 66
- 0.74764 1 2 cbr 210 ------- 0 0.0 2.0 59 59
r 0.74959 0 1 cbr 210 ------- 0 0.0 2.0 61 61
+ 0.74959 1 2 cbr 210 ------- 0 0.0 2.0 61 61
r 0.75084 1 2 cbr 210 ------- 0 0.0 2.0 52 52
+ 0.75125 0 1 cbr 210 ------- 0 0.0 2.0 67 67
- 0.75125 0 1 cbr 210 ------- 0 0.0 2.0 67 67
r 0.75334 0 1 cbr 210 ------- 0 0.0 2.0 62 62
+ 0.75334 1 2 cbr 210 ------- 0 0.0 2.0 62 62
d 0.75334 1 2 cbr 210 ------- 0 0.0 2.0 62 62
+ 0.755 0 1 cbr 210 ------- 0 0.0 2.0 68 68
- 0.755 0 1 cbr 210 ------- 0 0.0 2.0 68 68
- 0.75604 1 2 cbr 210 ------- 0 0.0 2.0 61 61
r 0.75709 0 1 cbr 210 ------- 0 0.0 2.0 63 63
+ 0.75709 1 2 cbr 210 ------- 0 0.0 2.0 63 63
+ 0.75875 0 1 cbr 210 ------- 0 0.0 2.0 69 69
- 0.75875 0 1 cbr 210 ------- 0 0.0 2.0 69 69
r 0.75924 1 2 cbr 210 ------- 0 0.0 2.0 54 54
r 0.76084 0 1 cbr 210 ------- 0 0.0 2.0 64 64
+ 0.76084 1 2 cbr 210 ------- 0 0.0 2.0 64 64
d 0.76084 1 2 cbr 210 ------- 0 0.0 2.0 64 64
+ 0.7625 0 1 cbr 210 ------- 0 0.0 2.0 70 70
- 0.7625 0 1 cbr 210 ------- 0 0.0 2.0 70 70
- 0.76444 1 2 cbr 210 ------- 0 0.0 2.0 63 63
r 0.76459 0 1 cbr 210 ------- 0 0.0 2.0 65 65
+ 0.76459 1 2 cbr 210 ------- 0 0.0 2.0 65 65
+ 0.76625 0 1 cbr 210 ------- 0 0.0 2.0 71 71
- 0.76625 0 1 cbr 210 ------- 0 0.0 2.0 71 71
r 0.76764 1 2 cbr 210 ------- 0 0.0 2.0 56 56
r 0.76834 0 1 cbr 210 ------- 0 0.0 2.0 66 66
+ 0.76834 1 2 cbr 210 ------- 0 0.0 2.0 66 66
d 0.76834 1 2 cbr 210 ------- 0 0.0 2.0 66 66
+ 0.77 0 1 cbr 210 ------- 0 0.0 2.0 72 72
- 0.77 0 1 cbr 210 ------- 0 0.0 2.0 72 72
r 0.77209 0 1 cbr 210 ------- 0 0.0 2.0 67 67
+ 0.77209 1 2 cbr 210 ------- 0 0.0 2.0 67 67
d 0.77209 1 2 cbr 210 ------- 0 0.0 2.0 67 67
- 0.77284 1 2 cbr 210 ------- 0 0.0 2.0 65 65
+ 0.77375 0 1 cbr 210 ------- 0 0.0 2.0 73 73
- 0.77375 0 1 cbr 210 ------- 0 0.0 2.0 73 73
r 0.77584 0 1 cbr 210 ------- 0 0.0 2.0 68 68
+ 0.77584 1 2 cbr 210 ------- 0 0.0 2.0 68 68
r 0.77604 1 2 cbr 210 ------- 0 0.0 2.0 59 59
+ 0.7775 0 1 cbr 210 ------- 0 0.0 2.0 74 74
- 0.7775 0 1 cbr 210 ------- 0 0.0 2.0 74 74
r 0.77959 0 1 cbr 210 ------- 0 0.0 2.0 69 69
+ 0.77959 1 2 cbr 210 ------- 0 0.0 2.0 69 69
d 0.77959 1 2 cbr 210 ------- 0 0.0 2.0 69 69
- 0.78124 1 2 cbr 210 ------- 0 0.0 2.0 68 68
+ 0.78125 0 1 cbr 210 ------- 0 0.0 2.0 75 75
- 0.78125 0 1 cbr 210 ------- 0 0.0 2.0 75 75
r 0.78334 0 1 cbr 210 ------- 0 0.0 2.0 70 70
+ 0.78334 1 2 cbr 210 ------- 0 0.0 2.0 70 70
r 0.78444 1 2 cbr 210 ------- 0 0.0 2.0 61 61
+ 0.785 0 1 cbr 210 ------- 0 0.0 2.0 76 76
- 0.785 0 1 cbr 210 ------- 0 0.0 2.0 76 76
r 0.78709 0 1 cbr 210 ------- 0 0.0 2.0 71 71
+ 0.78709 1 2 cbr 210 ------- 0 0.0 2.0 71 71
d 0.78709 1 2 cbr 210 ------- 0 0.0 2.0 71 71
+ 0.78875 0 1 cbr 210 ------- 0 0.0 2.0 77 77
- 0.78875 0 1 cbr 210 ------- 0 0.0 2.0 77 77
- 0.78964 1 2 cbr 210 ------- 0 0.0 2.0 70 70
r 0.79084 0 1 cbr 210 ------- 0 0.0 2.0 72 72
+ 0.79084 1 2 cbr 210 ------- 0 0.0 2.0 72 72
+ 0.7925 0 1 cbr 210 ------- 0 0.0 2.0 78 78
- 0.7925 0 1 cbr 210 ------- 0 0.0 2.0 78 78
r 0.79284 1 2 cbr 210 ------- 0 0.0 2.0 63 63
r 0.79459 0 1 cbr 210 ------- 0 0.0 2.0 73 73
+ 0.79459 1 2 cbr 210 ------- 0 0.0 2.0 73 73
d 0.79459 1 2 cbr 210 ------- 0 0.0 2.0 73 73
+ 0.79625 0 1 cbr 210 ------- 0 0.0 2.0 79 79
- 0.79625 0 1 cbr 210 ------- 0 0.0 2.0 79 79
- 0.79804 1 2 cbr 210 ------- 0 0.0 2.0 72 72
r 0.79834 0 1 cbr 210 ------- 0 0.0 2.0 74 74
+ 0.79834 1 2 cbr 210 ------- 0 0.0 2.0 74 74
+ 0.8 0 1 cbr 210 ------- 0 0.0 2.0 80 80
- 0.8 0 1 cbr 210 ------- 0 0.0 2.0 80 80
r 0.80124 1 2 cbr 210 ------- 0 0.0 2.0 65 65
r 0.80209 0 1 cbr 210 ------- 0 0.0 2.0 75 75
+ 0.80209 1 2 cbr 210 ------- 0 0.0 2.0 75 75
d 0.80209 1 2 cbr 210 ------- 0 0.0 2.0 75 75
+ 0.80375 0 1 cbr 210 ------- 0 0.0 2.0 81 81
- 0.80375 0 1 cbr 210 ------- 0 0.0 2.0 81 81
r 0.80584 0 1 cbr 210 ------- 0 0.0 2.0 76 76
+ 0.80584 1 2 cbr 210 ------- 0 0.0 2.0 76 76
d 0.80584 1 2 cbr 210 ------- 0 0.0 2.0 76 76
- 0.80644 1 2 cbr 210 ------- 0 0.0 2.0 74 74
+ 0.8075 0 1 cbr 210 ------- 0 0.0 2.0 82 82
- 0.8075 0 1 cbr 210 ------- 0 0.0 2.0 82 82
r 0.80959 0 1 cbr 210 ------- 0 0.0 2.0 77 77
+ 0.80959 1 2 cbr 210 ------- 0 0.0 2.0 77 77
r 0.80964 1 2 cbr 210 ------- 0 0.0 2.0 68 68
+ 0.81125 0 1 cbr 210 ------- 0 0.0 2.0 83 83
- 0.81125 0 1 cbr 210 ------- 0 0.0 2.0 83 83
r 0.81334 0 1 cbr 210 ------- 0 0.0 2.0 78 78
+ 0.81334 1 2 cbr 210 ------- 0 0.0 2.0 78 78
d 0.81334 1 2 cbr 210 ------- 0 0.0 2.0 78 78
- 0.81484 1 2 cbr 210 ------- 0 0.0 2.0 77 77
+ 0.815 0 1 cbr 210 ------- 0 0.0 2.0 84 84
- 0.815 0 1 cbr 210 ------- 0 0.0 2.0 84 84
r 0.81709 0 1 cbr 210 ------- 0 0.0 2.0 79 79
+ 0.81709 1 2 cbr 210 ------- 0 0.0 2.0 79 79
r 0.81804 1 2 cbr 210 ------- 0 0.0 2.0 70 70
+ 0.81875 0 1 cbr 210 ------- 0 0.0 2.0 85 85
- 0.81875 0 1 cbr 210 ------- 0 0.0 2.0 85 85
r 0.82084 0 1 cbr 210 ------- 0 0.0 2.0 80 80
+ 0.82084 1 2 cbr 210 ------- 0 0.0 2.0 80 80
d 0.82084 1 2 cbr 210 ------- 0 0.0 2.0 80 80
+ 0.8225 0 1 cbr 210 ------- 0 0.0 2.0 86 86
- 0.8225 0 1 cbr 210 ------- 0 0.0 2.0 86 86
- 0.82324 1 2 cbr 210 ------- 0 0.0 2.0 79 79
r 0.82459 0 1 cbr 210 ------- 0 0.0 2.0 81 81
+ 0.82459 1 2 cbr 210 ------- 0 0.0 2.0 81 81
+ 0.82625 0 1 cbr 210 ------- 0 0.0 2.0 87 87
- 0.82625 0 1 cbr 210 ------- 0 0.0 2.0 87 87
r 0.82644 1 2 cbr 210 ------- 0 0.0 2.0 72 72
r 0.82834 0 1 cbr 210 ------- 0 0.0 2.0 82 82
+ 0.82834 1 2 cbr 210 ------- 0 0.0 2.0 82 82
d 0.82834 1 2 cbr 210 ------- 0 0.0 2.0 82 82
+ 0.83 0 1 cbr 210 ------- 0 0.0 2.0 88 88
- 0.83 0 1 cbr 210 ------- 0 0.0 2.0 88 88
- 0.83164 1 2 cbr 210 ------- 0 0.0 2.0 81 81
r 0.83209 0 1 cbr 210 ------- 0 0.0 2.0 83 83
+ 0.83209 1 2 cbr 210 ------- 0 0.0 2.0 83 83
+ 0.83375 0 1 cbr 210 ------- 0 0.0 2.0 89 89
- 0.83375 0 1 cbr 210 ------- 0 0.0 2.0 89 89
r 0.83484 1 2 cbr 210 ------- 0 0.0 2.0 74 74
r 0.83584 0 1 cbr 210 ------- 0 0.0 2.0 84 84
+ 0.83584 1 2 cbr 210 ------- 0 0.0 2.0 84 84
d 0.83584 1 2 cbr 210 ------- 0 0.0 2.0 84 84
+ 0.8375 0 1 cbr 210 ------- 0 0.0 2.0 90 90
- 0.8375 0 1 cbr 210 ------- 0 0.0 2.0 90 90
r 0.83959 0 1 cbr 210 ------- 0 0.0 2.0 85 85
+ 0.83959 1 2 cbr 210 ------- 0 0.0 2.0 85 85
d 0.83959 1 2 cbr 210 ------- 0 0.0 2.0 85 85
- 0.84004 1 2 cbr 210 ------- 0 0.0 2.0 83 83
+ 0.84125 0 1 cbr 210 ------- 0 0.0 2.0 91 91
- 0.84125 0 1 cbr 210 ------- 0 0.0 2.0 91 91
r 0.84324 1 2 cbr 210 ------- 0 0.0 2.0 77 77
r 0.84334 0 1 cbr 210 ------- 0 0.0 2.0 86 86
+ 0.84334 1 2 cbr 210 ------- 0 0.0 2.0 86 86
+ 0.845 0 1 cbr 210 ------- 0 0.0 2.0 92 92
- 0.845 0 1 cbr 210 ------- 0 0.0 2.0 92 92
r 0.84709 0 1 cbr 210 ------- 0 0.0 2.0 87 87
+ 0.84709 1 2 cbr 210 ------- 0 0.0 2.0 87 87
d 0.84709 1 2 cbr 210 ------- 0 0.0 2.0 87 87
- 0.84844 1 2 cbr 210 ------- 0 0.0 2.0 86 86
+ 0.84875 0 1 cbr 210 ------- 0 0.0 2.0 93 93
- 0.84875 0 1 cbr 210 ------- 0 0.0 2.0 93 93
r 0.85084 0 1 cbr 210 ------- 0 0.0 2.0 88 88
+ 0.85084 1 2 cbr 210 ------- 0 0.0 2.0 88 88
r 0.85164 1 2 cbr 210 ------- 0 0.0 2.0 79 79
+ 0.8525 0 1 cbr 210 ------- 0 0.0 2.0 94 94
- 0.8525 0 1 cbr 210 ------- 0 0.0 2.0 94 94
r 0.85459 0 1 cbr 210 ------- 0 0.0 2.0 89 89
+ 0.85459 1 2 cbr 210 ------- 0 0.0 2.0 89 89
d 0.85459 1 2 cbr 210 ------- 0 0.0 2.0 89 89
+ 0.85625 0 1 cbr 210 ------- 0 0.0 2.0 95 95
- 0.85625 0 1 cbr 210 ------- 0 0.0 2.0 95 95
- 0.85684 1 2 cbr 210 ------- 0 0.0 2.0 88 88
r 0.85834 0 1 cbr 210 ------- 0 0.0 2.0 90 90
+ 0.85834 1 2 cbr 210 ------- 0 0.0 2.0 90 90
+ 0.86 0 1 cbr 210 ------- 0 0.0 2.0 96 96
- 0.86 0 1 cbr 210 ------- 0 0.0 2.0 96 96
r 0.86004 1 2 cbr 210 ------- 0 0.0 2.0 81 81
r 0.86209 0 1 cbr 210 ------- 0 0.0 2.0 91 91
+ 0.86209 1 2 cbr 210 ------- 0 0.0 2.0 91 91
d 0.86209 1 2 cbr 210 ------- 0 0.0 2.0 91 91
+ 0.86375 0 1 cbr 210 ------- 0 0.0 2.0 97 97
- 0.86375 0 1 cbr 210 ------- 0 0.0 2.0 97 97
- 0.86524 1 2 cbr 210 ------- 0 0.0 2.0 90 90
r 0.86584 0 1 cbr 210 ------- 0 0.0 2.0 92 92
+ 0.86584 1 2 cbr 210 ------- 0 0.0 2.0 92 92
+ 0.8675 0 1 cbr 210 ------- 0 0.0 2.0 98 98
- 0.8675 0 1 cbr 210 ------- 0 0.0 2.0 98 98
r 0.86844 1 2 cbr 210 ------- 0 0.0 2.0 83 83
r 0.86959 0 1 cbr 210 ------- 0 0.0 2.0 93 93
+ 0.86959 1 2 cbr 210 ------- 0 0.0 2.0 93 93
d 0.86959 1 2 cbr 210 ------- 0 0.0 2.0 93 93
+ 0.87125 0 1 cbr 210 ------- 0 0.0 2.0 99 99
- 0.87125 0 1 cbr 210 ------- 0 0.0 2.0 99 99
r 0.87334 0 1 cbr 210 ------- 0 0.0 2.0 94 94
+ 0.87334 1 2 cbr 210 ------- 0 0.0 2.0 94 94
d 0.87334 1 2 cbr 210 ------- 0 0.0 2.0 94 94
- 0.87364 1 2 cbr 210 ------- 0 0.0 2.0 92 92
+ 0.875 0 1 cbr 210 ------- 0 0.0 2.0 100 100
- 0.875 0 1 cbr 210 ------- 0 0.0 2.0 100 100
r 0.87684 1 2 cbr 210 ------- 0 0.0 2.0 86 86
r 0.87709 0 1 cbr 210 ------- 0 0.0 2.0 95 95
+ 0.87709 1 2 cbr 210 ------- 0 0.0 2.0 95 95
+ 0.87875 0 1 cbr 210 ------- 0 0.0 2.0 101 101
- 0.87875 0 1 cbr 210 ------- 0 0.0 2.0 101 101
r 0.88084 0 1 cbr 210 ------- 0 0.0 2.0 96 96
+ 0.88084 1 2 cbr 210 ------- 0 0.0 2.0 96 96
d 0.88084 1 2 cbr 210 ------- 0 0.0 2.0 96 96
- 0.88204 1 2 cbr 210 ------- 0 0.0 2.0 95 95
+ 0.8825 0 1 cbr 210 ------- 0 0.0 2.0 102 102
- 0.8825 0 1 cbr 210 ------- 0 0.0 2.0 102 102
r 0.88459 0 1 cbr 210 ------- 0 0.0 2.0 97 97
+ 0.88459 1 2 cbr 210 ------- 0 0.0 2.0 97 97
r 0.88524 1 2 cbr 210 ------- 0 0.0 2.0 88 88
+ 0.88625 0 1 cbr 210 ------- 0 0.0 2.0 103 103
- 0.88625 0 1 cbr 210 ------- 0 0.0 2.0 103 103
r 0.88834 0 1 cbr 210 ------- 0 0.0 2.0 98 98
+ 0.88834 1 2 cbr 210 ------- 0 0.0 2.0 98 98
d 0.88834 1 2 cbr 210 ------- 0 0.0 2.0 98 98
+ 0.89 0 1 cbr 210 ------- 0 0.0 2.0 104 104
- 0.89 0 1 cbr 210 ------- 0 0.0 2.0 104 104
- 0.89044 1 2 cbr 210 ------- 0 0.0 2.0 97 97
r 0.89209 0 1 cbr 210 ------- 0 0.0 2.0 99 99
+ 0.89209 1 2 cbr 210 ------- 0 0.0 2.0 99 99
r 0.89364 1 2 cbr 210 ------- 0 0.0 2.0 90 90
+ 0.89375 0 1 cbr 210 ------- 0 0.0 2.0 105 105
- 0.89375 0 1 cbr 210 ------- 0 0.0 2.0 105 105
r 0.89584 0 1 cbr 210 ------- 0 0.0 2.0 100 100
+ 0.89584 1 2 cbr 210 ------- 0 0.0 2.0 100 100
d 0.89584 1 2 cbr 210 ------- 0 0.0 2.0 100 100
+ 0.8975 0 1 cbr 210 ------- 0 0.0 2.0 106 106
- 0.8975 0 1 cbr 210 ------- 0 0.0 2.0 106 106
- 0.89884 1 2 cbr 210 ------- 0 0.0 2.0 99 99
r 0.89959 0 1 cbr 210 ------- 0 0.0 2.0 101 101
+ 0.89959 1 2 cbr 210 ------- 0 0.0 2.0 101 101
+ 0.90125 0 1 cbr 210 ------- 0 0.0 2.0 107 107
- 0.90125 0 1 cbr 210 ------- 0 0.0 2.0 107 107
r 0.90204 1 2 cbr 210 ------- 0 0.0 2.0 92 92
r 0.90334 0 1 cbr 210 ------- 0 0.0 2.0 102 102
+ 0.90334 1 2 cbr 210 ------- 0 0.0 2.0 102 102
d 0.90334 1 2 cbr 210 ------- 0 0.0 2.0 102 102
+ 0.905 0 1 cbr 210 ------- 0 0.0 2.0 108 108
- 0.905 0 1 cbr 210 ------- 0 0.0 2.0 108 108
r 0.90709 0 1 cbr 210 ------- 0 0.0 2.0 103 103
+ 0.90709 1 2 cbr 210 ------- 0 0.0 2.0 103 103
d 0.90709 1 2 cbr 210 ------- 0 0.0 2.0 103 103
- 0.90724 1 2 cbr 210 ------- 0 0.0 2.0 101 101
+ 0.90875 0 1 cbr 210 ------- 0 0.0 2.0 109 109
- 0.90875 0 1 cbr 210 ------- 0 0.0 2.0 109 109
r 0.91044 1 2 cbr 210 ------- 0 0.0 2.0 95 95
r 0.91084 0 1 cbr 210 ------- 0 0.0 2.0 104 104
+ 0.91084 1 2 cbr 210 ------- 0 0.0 2.0 104 104
+ 0.9125 0 1 cbr 210 ------- 0 0.0 2.0 110 110
- 0.9125 0 1 cbr 210 ------- 0 0.0 2.0 110 110
r 0.91459 0 1 cbr 210 ------- 0 0.0 2.0 105 105
+ 0.91459 1 2 cbr 210 ------- 0 0.0 2.0 105 105
d 0.91459 1 2 cbr 210 ------- 0 0.0 2.0 105 105
- 0.91564 1 2 cbr 210 ------- 0 0.0 2.0 104 104
+ 0.91625 0 1 cbr 210 ------- 0 0.0 2.0 111 111
- 0.91625 0 1 cbr 210 ------- 0 0.0 2.0 111 111
r 0.91834 0 1 cbr 210 ------- 0 0.0 2.0 106 106
+ 0.91834 1 2 cbr 210 ------- 0 0.0 2.0 106 106
r 0.91884 1 2 cbr 210 ------- 0 0.0 2.0 97 97
+ 0.92 0 1 cbr 210 ------- 0 0.0 2.0 112 112
- 0.92 0 1 cbr 210 ------- 0 0.0 2.0 112 112
r 0.92209 0 1 cbr 210 ------- 0 0.0 2.0 107 107
+ 0.92209 1 2 cbr 210 ------- 0 0.0 2.0 107 107
d 0.92209 1 2 cbr 210 ------- 0 0.0 2.0 107 107
+ 0.92375 0 1 cbr 210 ------- 0 0.0 2.0 113 113
- 0.92375 0 1 cbr 210 ------- 0 0.0 2.0 113 113
- 0.92404 1 2 cbr 210 ------- 0 0.0 2.0 106 106
r 0.92584 0 1 cbr 210 ------- 0 0.0 2.0 108 108
+ 0.92584 1 2 cbr 210 ------- 0 0.0 2.0 108 108
r 0.92724 1 2 cbr 210 ------- 0 0.0 2.0 99 99
+ 0.9275 0 1 cbr 210 ------- 0 0.0 2.0 114 114
- 0.9275 0 1 cbr 210 ------- 0 0.0 2.0 114 114
r 0.92959 0 1 cbr 210 ------- 0 0.0 2.0 109 109
+ 0.92959 1 2 cbr 210 ------- 0 0.0 2.0 109 109
d 0.92959 1 2 cbr 210 ------- 0 0.0 2.0 109 109
+ 0.93125 0 1 cbr 210 ------- 0 0.0 2.0 115 115
- 0.93125 0 1 cbr 210 ------- 0 0.0 2.0 115 115
- 0.93244 1 2 cbr 210 ------- 0 0.0 2.0 108 108
r 0.93334 0 1 cbr 210 ------- 0 0.0 2.0 110 110
+ 0.93334 1 2 cbr 210 ------- 0 0.0 2.0 110 110
+ 0.935 0 1 cbr 210 ------- 0 0.0 2.0 116 116
- 0.935 0 1 cbr 210 ------- 0 0.0 2.0 116 116
r 0.93564 1 2 cbr 210 ------- 0 0.0 2.0 101 101
r 0.93709 0 1 cbr 210 ------- 0 0.0 2.0 111 111
+ 0.93709 1 2 cbr 210 ------- 0 0.0 2.0 111 111
d 0.93709 1 2 cbr 210 ------- 0 0.0 2.0 111 111
+ 0.93875 0 1 cbr 210 ------- 0 0.0 2.0 117 117
- 0.93875 0 1 cbr 210 ------- 0 0.0 2.0 117 117
- 0.94084 1 2 cbr 210 ------- 0 0.0 2.0 110 110
r 0.94084 0 1 cbr 210 ------- 0 0.0 2.0 112 112
+ 0.94084 1 2 cbr 210 ------- 0 0.0 2.0 112 112
+ 0.9425 0 1 cbr 210 ------- 0 0.0 2.0 118 118
- 0.9425 0 1 cbr 210 ------- 0 0.0 2.0 118 118
r 0.94404 1 2 cbr 210 ------- 0 0.0 2.0 104 104
r 0.94459 0 1 cbr 210 ------- 0 0.0 2.0 113 113
+ 0.94459 1 2 cbr 210 ------- 0 0.0 2.0 113 113
d 0.94459 1 2 cbr 210 ------- 0 0.0 2.0 113 113
+ 0.94625 0 1 cbr 210 ------- 0 0.0 2.0 119 119
- 0.94625 0 1 cbr 210 ------- 0 0.0 2.0 119 119
r 0.94834 0 1 cbr 210 ------- 0 0.0 2.0 114 114
+ 0.94834 1 2 cbr 210 ------- 0 0.0 2.0 114 114
d 0.94834 1 2 cbr 210 ------- 0 0.0 2.0 114 114
- 0.94924 1 2 cbr 210 ------- 0 0.0 2.0 112 112
+ 0.95 0 1 cbr 210 ------- 0 0.0 2.0 120 120
- 0.95 0 1 cbr 210 ------- 0 0.0 2.0 120 120
r 0.95209 0 1 cbr 210 ------- 0 0.0 2.0 115 115
+ 0.95209 1 2 cbr 210 ------- 0 0.0 2.0 115 115
r 0.95244 1 2 cbr 210 ------- 0 0.0 2.0 106 106
+ 0.95375 0 1 cbr 210 ------- 0 0.0 2.0 121 121
- 0.95375 0 1 cbr 210 ------- 0 0.0 2.0 121 121
r 0.95584 0 1 cbr 210 ------- 0 0.0 2.0 116 116
+ 0.95584 1 2 cbr 210 ------- 0 0.0 2.0 116 116
d 0.95584 1 2 cbr 210 ------- 0 0.0 2.0 116 116
+ 0.9575 0 1 cbr 210 ------- 0 0.0 2.0 122 122
- 0.9575 0 1 cbr 210 ------- 0 0.0 2.0 122 122
- 0.95764 1 2 cbr 210 ------- 0 0.0 2.0 115 115
r 0.95959 0 1 cbr 210 ------- 0 0.0 2.0 117 117
+ 0.95959 1 2 cbr 210 ------- 0 0.0 2.0 117 117
r 0.96084 1 2 cbr 210 ------- 0 0.0 2.0 108 108
+ 0.96125 0 1 cbr 210 ------- 0 0.0 2.0 123 123
- 0.96125 0 1 cbr 210 ------- 0 0.0 2.0 123 123
r 0.96334 0 1 cbr 210 ------- 0 0.0 2.0 118 118
+ 0.96334 1 2 cbr 210 ------- 0 0.0 2.0 118 118
d 0.96334 1 2 cbr 210 ------- 0 0.0 2.0 118 118