V -t * -v 1.0a5 -a 0
A -t * -n 1 -p 0 -o 0x7fffffff -c 30 -a 1
A -t * -h 1 -m 1073741823 -s 0
n -t * -a 0 -s 0 -S UP -v circle -c black -i black
n -t * -a 1 -s 1 -S UP -v circle -c black -i black
n -t * -a 2 -s 2 -S UP -v circle -c black -i black
l -t * -s 0 -d 1 -S UP -r 2000000 -D 0.02 -c black
l -t * -s 1 -d 2 -S UP -r 200000 -D 0.02 -c black
+ -t 0.5 -s 0 -d 1 -p cbr -e 210 -c 0 -i 0 -a 0 -x {0.0 2.0 0 ------- null}
- -t 0.5 -s 0 -d 1 -p cbr -e 210 -c 0 -i 0 -a 0 -x {0.0 2.0 0 ------- null}
h -t 0.5 -s 0 -d 1 -p cbr -e 210 -c 0 -i 0 -a 0 -x {0.0 2.0 -1 ------- null}
+ -t 0.50375 -s 0 -d 1 -p cbr -e 210 -c 0 -i 1 -a 0 -x {0.0 2.0 1 ------- null}
- -t 0.50375 -s 0 -d 1 -p cbr -e 210 -c 0 -i 1 -a 0 -x {0.0 2.0 1 ------- null}
h -t 0.50375 -s 0 -d 1 -p cbr -e 210 -c 0 -i 1 -a 0 -x {0.0 2.0 -1 ------- null}
+ -t 0.5075 -s 0 -d 1 -p cbr -e 210 -c 0 -i 2 -a 0 -x {0.0 2.0 2 ------- null}
- -t 0.5075 -s 0 -d 1 -p cbr -e 210 -c 0 -i 2 -a 0 -x {0.0 2.0 2 ------- null}
h -t 0.5075 -s 0 -d 1 -p cbr -e 210 -c 0 -i 2 -a 0 -x {0.0 2.0 -1 ------- null}
+ -t 0.51125 -s 0 -d 1 -p cbr -e 210 -c 0 -i 3 -a 0 -x {0.0 2.0 3 ------- null}
- -t 0.51125 -s 0 -d 1 -p cbr -e 210 -c 0 -i 3 -a 0 -x {0.0 2.0 3 ------- null}
h -t 0.51125 -s 0 -d 1 -p cbr -e 210 -c 0 -i 3 -a 0 -x {0.0 2.0 -1 ------- null}
+ -t 0.515 -s 0 -d 1 -p cbr -e 210 -c 0 -i 4 -a 0 -x {0.0 2.0 4 ------- null}
- -t 0.515 -s 0 -d 1 -p cbr -e 210 -c 0 -i 4 -a 0 -x {0.0 2.0 4 ------- null}
h -t 0.515 -s 0 -d 1 -p cbr -e 210 -c 0 -i 4 -a 0 -x {0.0 2.0 -1 ------- null}
+ -t 0.51875 -s 0 -d 1 -p cbr -e 210 -c 0 -i 5 -a 0 -x {0.0 2.0 5 ------- null}
- -t 0.51875 -s 0 -d 1 -p cbr -e 210 -c 0 -i 5 -a 0 -x {0.0 2.0 5 ------- null}
h -t 0.51875 -s 0 -d 1 -p cbr -e 210 -c 0 -i 5 -a 0 -x {0.0 2.0 -1 ------- null}
r -t 0.52084 -s 0 -d 1 -p cbr -e 210 -c 0 -i 0 -a 0 -x {0.0 2.0 0 ------- null}
+ -t 0.52084 -s 1 -d 2 -p cbr -e 210 -c 0 -i 0 -a 0 -x {0.0 2.0 0 ------- null}
- -t 0.52084 -s 1 -d 2 -p cbr -e 210 -c 0 -i 0 -a 0 -x {0.0 2.0 0 ------- null}
h -t 0.52084 -s 1 -d 2 -p cbr -e 210 -c 0 -i 0 -a 0 -x {0.0 2.0 -1 ------- null}
+ -t 0.5225 -s 0 -d 1 -p cbr -e 210 -c 0 -i 6 -a 0 -x {0.0 2.0 6 ------- null}
- -t 0.5225 -s 0 -d 1 -p cbr -e 210 -c 0 -i 6 -a 0 -x {0.0 2.0 6 ------- null}
h -t 0.5225 -s 0 -d 1 -p cbr -e 210 -c 0 -i 6 -a 0 -x {0.0 2.0 -1 ------- null}
r -t 0.52459 -s 0 -d 1 -p cbr -e 210 -c 0 -i 1 -a 0 -x {0.0 2.0 1 ------- null}
+ -t 0.52459 -s 1 -d 2 -p cbr -e 210 -c 0 -i 1 -a 0 -x {0.0 2.0 1 ------- null}
+ -t 0.52625 -s 0 -d 1 -p cbr -e 210 -c 0 -i 7 -a 0 -x {0.0 2.0 7 ------- null}
- -t 0.52625 -s 0 -d 1 -p cbr -e 210 -c 0 -i 7 -a 0 -x {0.0 2.0 7 ------- null}
h -t 0.52625 -s 0 -d 1 -p cbr -e 210 -c 0 -i 7 -a 0 -x {0.0 2.0 -1 ------- null}
r -t 0.52834 -s 0 -d 1 -p cbr -e 210 -c 0 -i 2 -a 0 -x {0.0 2.0 2 ------- null}
+ -t 0.52834 -s 1 -d 2 -p cbr -e 210 -c 0 -i 2 -a 0 -x {0.0 2.0 2 ------- null}
d -t 0.52834 -s 1 -d 2 -p cbr -e 210 -c 0 -i 2 -a 0 -x {0.0 2.0 2 ------- null}
- -t 0.52924 -s 1 -d 2 -p cbr -e 210 -c 0 -i 1 -a 0 -x {0.0 2.0 1 ------- null}
h -t 0.52924 -s 1 -d 2 -p cbr -e 210 -c 0 -i 1 -a 0 -x {0.0 2.0 -1 ------- null}
+ -t 0.53 -s 0 -d 1 -p cbr -e 210 -c 0 -i 8 -a 0 -x {0.0 2.0 8 ------- null}
- -t 0.53 -s 0 -d 1 -p cbr -e 210 -c 0 -i 8 -a 0 -x {0.0 2.0 8 ------- null}
h -t 0.53 -s 0 -d 1 -p cbr -e 210 -c 0 -i 8 -a 0 -x {0.0 2.0 -1 ------- null}
r -t 0.53209 -s 0 -d 1 -p cbr -e 210 -c 0 -i 3 -a 0 -x {0.0 2.0 3 ------- null}
+ -t 0.53209 -s 1 -d 2 -p cbr -e 210 -c 0 -i 3 -a 0 -x {0.0 2.0 3 ------- null}
+ -t 0.53375 -s 0 -d 1 -p cbr -e 210 -c 0 -i 9 -a 0 -x {0.0 2.0 9 ------- null}
- -t 0.53375 -s 0 -d 1 -p cbr -e 210 -c 0 -i 9 -a 0 -x {0.0 2.0 9 ------- null}
h -t 0.53375 -s 0 -d 1 -p cbr -e 210 -c 0 -i 9 -a 0 -x {0.0 2.0 -1 ------- null}
r -t 0.53584 -s 0 -d 1 -p cbr -e 210 -c 0 -i 4 -a 0 -x {0.0 2.0 4 ------- null}
+ -t 0.53584 -s 1 -d 2 -p cbr -e 210 -c 0 -i 4 -a 0 -x {0.0 2.0 4 ------- null}
d -t 0.53584 -s 1 -d 2 -p cbr -e 210 -c 0 -i 4 -a 0 -x {0.0 2.0 4 ------- null}
+ -t 0.5375 -s 0 -d 1 -p cbr -e 210 -c 0 -i 10 -a 0 -x {0.0 2.0 10 ------- null}
- -t 0.5375 -s 0 -d 1 -p cbr -e 210 -c 0 -i 10 -a 0 -x {0.0 2.0 10 ------- null}
h -t 0.5375 -s 0 -d 1 -p cbr -e 210 -c 0 -i 10 -a 0 -x {0.0 2.0 -1 ------- null}
- -t 0.53764 -s 1 -d 2 -p cbr -e 210 -c 0 -i 3 -a 0 -x {0.0 2.0 3 ------- null}
h -t 0.53764 -s 1 -d 2 -p cbr -e 210 -c 0 -i 3 -a 0 -x {0.0 2.0 -1 ------- null}
r -t 0.53959 -s 0 -d 1 -p cbr -e 210 -c 0 -i 5 -a 0 -x {0.0 2.0 5 ------- null}
+ -t 0.53959 -s 1 -d 2 -p cbr -e 210 -c 0 -i 5 -a 0 -x {0.0 2.0 5 ------- null}
+ -t 0.54125 -s 0 -d 1 -p cbr -e 210 -c 0 -i 11 -a 0 -x {0.0 2.0 11 ------- null}
- -t 0.54125 -s 0 -d 1 -p cbr -e 210 -c 0 -i 11 -a 0 -x {0.0 2.0 11 ------- null}
h -t 0.54125 -s 0 -d 1 -p cbr -e 210 -c 0 -i 11 -a 0 -x {0.0 2.0 -1 ------- null}
r -t 0.54334 -s 0 -d 1 -p cbr -e 210 -c 0 -i 6 -a 0 -x {0.0 2.0 6 ------- null}
+ -t 0.54334 -s 1 -d 2 -p cbr -e 210 -c 0 -i 6 -a 0 -x {0.0 2.0 6 ------- null}
d -t 0.54334 -s 1 -d 2 -p cbr -e 210 -c 0 -i 6 -a 0 -x {0.0 2.0 6 ------- null}
+ -t 0.545 -s 0 -d 1 -p cbr -e 210 -c 0 -i 12 -a 0 -x {0.0 2.0 12 ------- null}
- -t 0.545 -s 0 -d 1 -p cbr -e 210 -c 0 -i 12 -a 0 -x {0.0 2.0 12 ------- null}
h -t 0.545 -s 0 -d 1 -p cbr -e 210 -c 0 -i 12 -a 0 -x {0.0 2.0 -1 ------- null}
- -t 0.54604 -s 1 -d 2 -p cbr -e 210 -c 0 -i 5 -a 0 -x {0.0 2.0 5 ------- null}
h -t 0.54604 -s 1 -d 2 -p cbr -e 210 -c 0 -i 5 -a 0 -x {0.0 2.0 -1 ------- null}
r -t 0.54709 -s 0 -d 1 -p cbr -e 210 -c 0 -i 7 -a 0 -x {0.0 2.0 7 ------- null}
+ -t 0.54709 -s 1 -d 2 -p cbr -e 210 -c 0 -i 7 -a 0 -x {0.0 2.0 7 ------- null}
+ -t 0.54875 -s 0 -d 1 -p cbr -e 210 -c 0 -i 13 -a 0 -x {0.0 2.0 13 ------- null}
- -t 0.54875 -s 0 -d 1 -p cbr -e 210 -c 0 -i 13 -a 0 -x {0.0 2.0 13 ------- null}
h -t 0.54875 -s 0 -d 1 -p cbr -e 210 -c 0 -i 13 -a 0 -x {0.0 2.0 -1 ------- null}
r -t 0.54924 -s 1 -d 2 -p cbr -e 210 -c 0 -i 0 -a 0 -x {0.0 2.0 0 ------- null}
r -t 0.55084 -s 0 -d 1 -p cbr -e 210 -c 0 -i 8 -a 0 -x {0.0 2.0 8 ------- null}
+ -t 0.55084 -s 1 -d 2 -p cbr -e 210 -c 0 -i 8 -a 0 -x {0.0 2.0 8 ------- null}
d -t 0.55084 -s 1 -d 2 -p cbr -e 210 -c 0 -i 8 -a 0 -x {0.0 2.0 8 ------- null}
+ -t 0.5525 -s 0 -d 1 -p cbr -e 210 -c 0 -i 14 -a 0 -x {0.0 2.0 14 ------- null}
- -t 0.5525 -s 0 -d 1 -p cbr -e 210 -c 0 -i 14 -a 0 -x {0.0 2.0 14 ------- null}
h -t 0.5525 -s 0 -d 1 -p cbr -e 210 -c 0 -i 14 -a 0 -x {0.0 2.0 -1 ------- null}
- -t 0.55444 -s 1 -d 2 -p cbr -e 210 -c 0 -i 7 -a 0 -x {0.0 2.0 7 ------- null}
h -t 0.55444 -s 1 -d 2 -p cbr -e 210 -c 0 -i 7 -a 0 -x {0.0 2.0 -1 ------- null}
r -t 0.55459 -s 0 -d 1 -p cbr -e 210 -c 0 -i 9 -a 0 -x {0.0 2.0 9 ------- null}
+ -t 0.55459 -s 1 -d 2 -p cbr -e 210 -c 0 -i 9 -a 0 -x {0.0 2.0 9 ------- null}
+ -t 0.55625 -s 0 -d 1 -p cbr -e 210 -c 0 -i 15 -a 0 -x {0.0 2.0 15 ------- null}
- -t 0.55625 -s 0 -d 1 -p cbr -e 210 -c 0 -i 15 -a 0 -x {0.0 2.0 15 ------- null}
h -t 0.55625 -s 0 -d 1 -p cbr -e 210 -c 0 -i 15 -a 0 -x {0.0 2.0 -1 ------- null}
r -t 0.55764 -s 1 -d 2 -p cbr -e 210 -c 0 -i 1 -a 0 -x {0.0 2.0 1 ------- null}
r -t 0.55834 -s 0 -d 1 -p cbr -e 210 -c 0 -i 10 -a 0 -x {0.0 2.0 10 ------- null}
+ -t 0.55834 -s 1 -d 2 -p cbr -e 210 -c 0 -i 10 -a 0 -x {0.0 2.0 10 ------- null}
d -t 0.55834 -s 1 -d 2 -p cbr -e 210 -c 0 -i 10 -a 0 -x {0.0 2.0 10 ------- null}
+ -t 0.56 -s 0 -d 1 -p cbr -e 210 -c 0 -i 16 -a 0 -x {0.0 2.0 16 ------- null}
- -t 0.56 -s 0 -d 1 -p cbr -e 210 -c 0 -i 16 -a 0 -x {0.0 2.0 16 ------- null}
h -t 0.56 -s 0 -d 1 -p cbr -e 210 -c 0 -i 16 -a 0 -x {0.0 2.0 -1 ------- null}
r -t 0.56209 -s 0 -d 1 -p cbr -e 210 -c 0 -i 11 -a 0 -x {0.0 2.0 11 ------- null}
+ -t 0.56209 -s 1 -d 2 -p cbr -e 210 -c 0 -i 11 -a 0 -x {0.0 2.0 11 ------- null}
d -t 0.56209 -s 1 -d 2 -p cbr -e 210 -c 0 -i 11 -a 0 -x {0.0 2.0 11 ------- null}
- -t 0.56284 -s 1 -d 2 -p cbr -e 210 -c 0 -i 9 -a 0 -x {0.0 2.0 9 ------- null}
h -t 0.56284 -s 1 -d 2 -p cbr -e 210 -c 0 -i 9 -a 0 -x {0.0 2.0 -1 ------- null}
+ -t 0.563750000000001 -s 0 -d 1 -p cbr -e 210 -c 0 -i 17 -a 0 -x {0.0 2.0 17 ------- null}
- -t 0.563750000000001 -s 0 -d 1 -p cbr -e 210 -c 0 -i 17 -a 0 -x {0.0 2.0 17 ------- null}
h -t 0.563750000000001 -s 0 -d 1 -p cbr -e 210 -c 0 -i 17 -a 0 -x {0.0 2.0 -1 ------- null}
r -t 0.56584 -s 0 -d 1 -p cbr -e 210 -c 0 -i 12 -a 0 -x {0.0 2.0 12 ------- null}
+ -t 0.56584 -s 1 -d 2 -p cbr -e 210 -c 0 -i 12 -a 0 -x {0.0 2.0 12 ------- null}
r -t 0.56604 -s 1 -d 2 -p cbr -e 210 -c 0 -i 3 -a 0 -x {0.0 2.0 3 ------- null}
+ -t 0.567500000000001 -s 0 -d 1 -p cbr -e 210 -c 0 -i 18 -a 0 -x {0.0 2.0 18 ------- null}
- -t 0.567500000000001 -s 0 -d 1 -p cbr -e 210 -c 0 -i 18 -a 0 -x {0.0 2.0 18 ------- null}
h -t 0.567500000000001 -s 0 -d 1 -p cbr -e 210 -c 0 -i 18 -a 0 -x {0.0 2.0 -1 ------- null}
r -t 0.56959 -s 0 -d 1 -p cbr -e 210 -c 0 -i 13 -a 0 -x {0.0 2.0 13 ------- null}
+ -t 0.56959 -s 1 -d 2 -p cbr -e 210 -c 0 -i 13 -a 0 -x {0.0 2.0 13 ------- null}
d -t 0.56959 -s 1 -d 2 -p cbr -e 210 -c 0 -i 13 -a 0 -x {0.0 2.0 13 ------- null}
- -t 0.57124 -s 1 -d 2 -p cbr -e 210 -c 0 -i 12 -a 0 -x {0.0 2.0 12 ------- null}
h -t 0.57124 -s 1 -d 2 -p cbr -e 210 -c 0 -i 12 -a 0 -x {0.0 2.0 -1 ------- null}
+ -t 0.571250000000001 -s 0 -d 1 -p cbr -e 210 -c 0 -i 19 -a 0 -x {0.0 2.0 19 ------- null}
- -t 0.571250000000001 -s 0 -d 1 -p cbr -e 210 -c 0 -i 19 -a 0 -x {0.0 2.0 19 ------- null}
h -t 0.571250000000001 -s 0 -d 1 -p cbr -e 210 -c 0 -i 19 -a 0 -x {0.0 2.0 -1 ------- null}
r -t 0.57334 -s 0 -d 1 -p cbr -e 210 -c 0 -i 14 -a 0 -x {0.0 2.0 14 ------- null}
+ -t 0.57334 -s 1 -d 2 -p cbr -e 210 -c 0 -i 14 -a 0 -x {0.0 2.0 14 ------- null}
r -t 0.57444 -s 1 -d 2 -p cbr -e 210 -c 0 -i 5 -a 0 -x {0.0 2.0 5 ------- null}
+ -t 0.575000000000001 -s 0 -d 1 -p cbr -e 210 -c 0 -i 20 -a 0 -x {0.0 2.0 20 ------- null}
- -t 0.575000000000001 -s 0 -d 1 -p cbr -e 210 -c 0 -i 20 -a 0 -x {0.0 2.0 20 ------- null}
h -t 0.575000000000001 -s 0 -d 1 -p cbr -e 210 -c 0 -i 20 -a 0 -x {0.0 2.0 -1 ------- null}
r -t 0.57709 -s 0 -d 1 -p cbr -e 210 -c 0 -i 15 -a 0 -x {0.0 2.0 15 ------- null}
+ -t 0.57709 -s 1 -d 2 -p cbr -e 210 -c 0 -i 15 -a 0 -x {0.0 2.0 15 ------- null}
d -t 0.57709 -s 1 -d 2 -p cbr -e 210 -c 0 -i 15 -a 0 -x {0.0 2.0 15 ------- null}
+ -t 0.578750000000001 -s 0 -d 1 -p cbr -e 210 -c 0 -i 21 -a 0 -x {0.0 2.0 21 ------- null}
- -t 0.578750000000001 -s 0 -d 1 -p cbr -e 210 -c 0 -i 21 -a 0 -x {0.0 2.0 21 ------- null}
h -t 0.578750000000001 -s 0 -d 1 -p cbr -e 210 -c 0 -i 21 -a 0 -x {0.0 2.0 -1 ------- null}
- -t 0.57964 -s 1 -d 2 -p cbr -e 210 -c 0 -i 14 -a 0 -x {0.0 2.0 14 ------- null}
h -t 0.57964 -s 1 -d 2 -p cbr -e 210 -c 0 -i 14 -a 0 -x {0.0 2.0 -1 ------- null}
r -t 0.58084 -s 0 -d 1 -p cbr -e 210 -c 0 -i 16 -a 0 -x {0.0 2.0 16 ------- null}
+ -t 0.58084 -s 1 -d 2 -p cbr -e 210 -c 0 -i 16 -a 0 -x {0.0 2.0 16 ------- null}
+ -t 0.582500000000001 -s 0 -d 1 -p cbr -e 210 -c 0 -i 22 -a 0 -x {0.0 2.0 22 ------- null}
- -t 0.582500000000001 -s 0 -d 1 -p cbr -e 210 -c 0 -i 22 -a 0 -x {0.0 2.0 22 ------- null}
h -t 0.582500000000001 -s 0 -d 1 -p cbr -e 210 -c 0 -i 22 -a 0 -x {0.0 2.0 -1 ------- null}
r -t 0.58284 -s 1 -d 2 -p cbr -e 210 -c 0 -i 7 -a 0 -x {0.0 2.0 7 ------- null}
r -t 0.58459 -s 0 -d 1 -p cbr -e 210 -c 0 -i 17 -a 0 -x {0.0 2.0 17 ------- null}
+ -t 0.58459 -s 1 -d 2 -p cbr -e 210 -c 0 -i 17 -a 0 -x {0.0 2.0 17 ------- null}
d -t 0.58459 -s 1 -d 2 -p cbr -e 210 -c 0 -i 17 -a 0 -x {0.0 2.0 17 ------- null}
+ -t 0.586250000000001 -s 0 -d 1 -p cbr -e 210 -c 0 -i 23 -a 0 -x {0.0 2.0 23 ------- null}
- -t 0.586250000000001 -s 0 -d 1 -p cbr -e 210 -c 0 -i 23 -a 0 -x {0.0 2.0 23 ------- null}
h -t 0.586250000000001 -s 0 -d 1 -p cbr -e 210 -c 0 -i 23 -a 0 -x {0.0 2.0 -1 ------- null}
- -t 0.58804 -s 1 -d 2 -p cbr -e 210 -c 0 -i 16 -a 0 -x {0.0 2.0 16 ------- null}
h -t 0.58804 -s 1 -d 2 -p cbr -e 210 -c 0 -i 16 -a 0 -x {0.0 2.0 -1 ------- null}
r -t 0.588340000000001 -s 0 -d 1 -p cbr -e 210 -c 0 -i 18 -a 0 -x {0.0 2.0 18 ------- null}
+ -t 0.588340000000001 -s 1 -d 2 -p cbr -e 210 -c 0 -i 18 -a 0 -x {0.0 2.0 18 ------- null}
+ -t 0.590000000000001 -s 0 -d 1 -p cbr -e 210 -c 0 -i 24 -a 0 -x {0.0 2.0 24 ------- null}
- -t 0.590000000000001 -s 0 -d 1 -p cbr -e 210 -c 0 -i 24 -a 0 -x {0.0 2.0 24 ------- null}
h -t 0.590000000000001 -s 0 -d 1 -p cbr -e 210 -c 0 -i 24 -a 0 -x {0.0 2.0 -1 ------- null}
r -t 0.59124 -s 1 -d 2 -p cbr -e 210 -c 0 -i 9 -a 0 -x {0.0 2.0 9 ------- null}
r -t 0.592090000000001 -s 0 -d 1 -p cbr -e 210 -c 0 -i 19 -a 0 -x {0.0 2.0 19 ------- null}
+ -t 0.592090000000001 -s 1 -d 2 -p cbr -e 210 -c 0 -i 19 -a 0 -x {0.0 2.0 19 ------- null}
d -t 0.592090000000001 -s 1 -d 2 -p cbr -e 210 -c 0 -i 19 -a 0 -x {0.0 2.0 19 ------- null}
+ -t 0.593750000000001 -s 0 -d 1 -p cbr -e 210 -c 0 -i 25 -a 0 -x {0.0 2.0 25 ------- null}
- -t 0.593750000000001 -s 0 -d 1 -p cbr -e 210 -c 0 -i 25 -a 0 -x {0.0 2.0 25 ------- null}
h -t 0.593750000000001 -s 0 -d 1 -p cbr -e 210 -c 0 -i 25 -a 0 -x {0.0 2.0 -1 ------- null}
r -t 0.595840000000001 -s 0 -d 1 -p cbr -e 210 -c 0 -i 20 -a 0 -x {0.0 2.0 20 ------- null}
+ -t 0.595840000000001 -s 1 -d 2 -p cbr -e 210 -c 0 -i 20 -a 0 -x {0.0 2.0 20 ------- null}
d -t 0.595840000000001 -s 1 -d 2 -p cbr -e 210 -c 0 -i 20 -a 0 -x {0.0 2.0 20 ------- null}
- -t 0.59644 -s 1 -d 2 -p cbr -e 210 -c 0 -i 18 -a 0 -x {0.0 2.0 18 ------- null}
h -t 0.59644 -s 1 -d 2 -p cbr -e 210 -c 0 -i 18 -a 0 -x {0.0 2.0 -1 ------- null}
+ -t 0.597500000000001 -s 0 -d 1 -p cbr -e 210 -c 0 -i 26 -a 0 -x {0.0 2.0 26 ------- null}
- -t 0.597500000000001 -s 0 -d 1 -p cbr -e 210 -c 0 -i 26 -a 0 -x {0.0 2.0 26 ------- null}
h -t 0.597500000000001 -s 0 -d 1 -p cbr -e 210 -c 0 -i 26 -a 0 -x {0.0 2.0 -1 ------- null}
r -t 0.599590000000001 -s 0 -d 1 -p cbr -e 210 -c 0 -i 21 -a 0 -x {0.0 2.0 21 ------- null}
+ -t 0.599590000000001 -s 1 -d 2 -p cbr -e 210 -c 0 -i 21 -a 0 -x {0.0 2.0 21 ------- null}
r -t 0.59964 -s 1 -d 2 -p cbr -e 210 -c 0 -i 12 -a 0 -x {0.0 2.0 12 ------- null}
+ -t 0.601250000000001 -s 0 -d 1 -p cbr -e 210 -c 0 -i 27 -a 0 -x {0.0 2.0 27 ------- null}
- -t 0.601250000000001 -s 0 -d 1 -p cbr -e 210 -c 0 -i 27 -a 0 -x {0.0 2.0 27 ------- null}
h -t 0.601250000000001 -s 0 -d 1 -p cbr -e 210 -c 0 -i 27 -a 0 -x {0.0 2.0 -1 ------- null}
r -t 0.603340000000001 -s 0 -d 1 -p cbr -e 210 -c 0 -i 22 -a 0 -x {0.0 2.0 22 ------- null}
+ -t 0.603340000000001 -s 1 -d 2 -p cbr -e 210 -c 0 -i 22 -a 0 -x {0.0 2.0 22 ------- null}
d -t 0.603340000000001 -s 1 -d 2 -p cbr -e 210 -c 0 -i 22 -a 0 -x {0.0 2.0 22 ------- null}
- -t 0.60484 -s 1 -d 2 -p cbr -e 210 -c 0 -i 21 -a 0 -x {0.0 2.0 21 ------- null}
h -t 0.60484 -s 1 -d 2 -p cbr -e 210 -c 0 -i 21 -a 0 -x {0.0 2.0 -1 ------- null}
+ -t 0.605000000000001 -s 0 -d 1 -p cbr -e 210 -c 0 -i 28 -a 0 -x {0.0 2.0 28 ------- null}
- -t 0.605000000000001 -s 0 -d 1 -p cbr -e 210 -c 0 -i 28 -a 0 -x {0.0 2.0 28 ------- null}
h -t 0.605000000000001 -s 0 -d 1 -p cbr -e 210 -c 0 -i 28 -a 0 -x {0.0 2.0 -1 ------- null}
r -t 0.607090000000001 -s 0 -d 1 -p cbr -e 210 -c 0 -i 23 -a 0 -x {0.0 2.0 23 ------- null}
+ -t 0.607090000000001 -s 1 -d 2 -p cbr -e 210 -c 0 -i 23 -a 0 -x {0.0 2.0 23 ------- null}
r -t 0.60804 -s 1 -d 2 -p cbr -e 210 -c 0 -i 14 -a 0 -x {0.0 2.0 14 ------- null}
+ -t 0.608750000000001 -s 0 -d 1 -p cbr -e 210 -c 0 -i 29 -a 0 -x {0.0 2.0 29 ------- null}
- -t 0.608750000000001 -s 0 -d 1 -p cbr -e 210 -c 0 -i 29 -a 0 -x {0.0 2.0 29 ------- null}
h -t 0.608750000000001 -s 0 -d 1 -p cbr -e 210 -c 0 -i 29 -a 0 -x {0.0 2.0 -1 ------- null}
r -t 0.610840000000001 -s 0 -d 1 -p cbr -e 210 -c 0 -i 24 -a 0 -x {0.0 2.0 24 ------- null}
+ -t 0.610840000000001 -s 1 -d 2 -p cbr -e 210 -c 0 -i 24 -a 0 -x {0.0 2.0 24 ------- null}
d -t 0.610840000000001 -s 1 -d 2 -p cbr -e 210 -c 0 -i 24 -a 0 -x {0.0 2.0 24 ------- null}
+ -t 0.612500000000001 -s 0 -d 1 -p cbr -e 210 -c 0 -i 30 -a 0 -x {0.0 2.0 30 ------- null}
- -t 0.612500000000001 -s 0 -d 1 -p cbr -e 210 -c 0 -i 30 -a 0 -x {0.0 2.0 30 ------- null}
h -t 0.612500000000001 -s 0 -d 1 -p cbr -e 210 -c 0 -i 30 -a 0 -x {0.0 2.0 -1 ------- null}
- -t 0.61324 -s 1 -d 2 -p cbr -e 210 -c 0 -i 23 -a 0 -x {0.0 2.0 23 ------- null}
h -t 0.61324 -s 1 -d 2 -p cbr -e 210 -c 0 -i 23 -a 0 -x {0.0 2.0 -1 ------- null}
r -t 0.614590000000001 -s 0 -d 1 -p cbr -e 210 -c 0 -i 25 -a 0 -x {0.0 2.0 25 ------- null}
+ -t 0.614590000000001 -s 1 -d 2 -p cbr -e 210 -c 0 -i 25 -a 0 -x {0.0 2.0 25 ------- null}
+ -t 0.616250000000001 -s 0 -d 1 -p cbr -e 210 -c 0 -i 31 -a 0 -x {0.0 2.0 31 ------- null}
- -t 0.616250000000001 -s 0 -d 1 -p cbr -e 210 -c 0 -i 31 -a 0 -x {0.0 2.0 31 ------- null}
h -t 0.616250000000001 -s 0 -d 1 -p cbr -e 210 -c 0 -i 31 -a 0 -x {0.0 2.0 -1 ------- null}
r -t 0.61644 -s 1 -d 2 -p cbr -e 210 -c 0 -i 16 -a 0 -x {0.0 2.0 16 ------- null}
r -t 0.618340000000001 -s 0 -d 1 -p cbr -e 210 -c 0 -i 26 -a 0 -x {0.0 2.0 26 ------- null}
+ -t 0.618340000000001 -s 1 -d 2 -p cbr -e 210 -c 0 -i 26 -a 0 -x {0.0 2.0 26 ------- null}
d -t 0.618340000000001 -s 1 -d 2 -p cbr -e 210 -c 0 -i 26 -a 0 -x {0.0 2.0 26 ------- null}
+ -t 0.620000000000001 -s 0 -d 1 -p cbr -e 210 -c 0 -i 32 -a 0 -x {0.0 2.0 32 ------- null}
- -t 0.620000000000001 -s 0 -d 1 -p cbr -e 210 -c 0 -i 32 -a 0 -x {0.0 2.0 32 ------- null}
h -t 0.620000000000001 -s 0 -d 1 -p cbr -e 210 -c 0 -i 32 -a 0 -x {0.0 2.0 -1 ------- null}
- -t 0.62164 -s 1 -d 2 -p cbr -e 210 -c 0 -i 25 -a 0 -x {0.0 2.0 25 ------- null}
h -t 0.62164 -s 1 -d 2 -p cbr -e 210 -c 0 -i 25 -a 0 -x {0.0 2.0 -1 ------- null}
r -t 0.622090000000001 -s 0 -d 1 -p cbr -e 210 -c 0 -i 27 -a 0 -x {0.0 2.0 27 ------- null}
+ -t 0.622090000000001 -s 1 -d 2 -p cbr -e 210 -c 0 -i 27 -a 0 -x {0.0 2.0 27 ------- null}
+ -t 0.623750000000001 -s 0 -d 1 -p cbr -e 210 -c 0 -i 33 -a 0 -x {0.0 2.0 33 ------- null}
- -t 0.623750000000001 -s 0 -d 1 -p cbr -e 210 -c 0 -i 33 -a 0 -x {0.0 2.0 33 ------- null}
h -t 0.623750000000001 -s 0 -d 1 -p cbr -e 210 -c 0 -i 33 -a 0 -x {0.0 2.0 -1 ------- null}
r -t 0.62484 -s 1 -d 2 -p cbr -e 210 -c 0 -i 18 -a 0 -x {0.0 2.0 18 ------- null}
r -t 0.625840000000001 -s 0 -d 1 -p cbr -e 210 -c 0 -i 28 -a 0 -x {0.0 2.0 28 ------- null}
+ -t 0.625840000000001 -s 1 -d 2 -p cbr -e 210 -c 0 -i 28 -a 0 -x {0.0 2.0 28 ------- null}
d -t 0.625840000000001 -s 1 -d 2 -p cbr -e 210 -c 0 -i 28 -a 0 -x {0.0 2.0 28 ------- null}
+ -t 0.627500000000001 -s 0 -d 1 -p cbr -e 210 -c 0 -i 34 -a 0 -x {0.0 2.0 34 ------- null}
- -t 0.627500000000001 -s 0 -d 1 -p cbr -e 210 -c 0 -i 34 -a 0 -x {0.0 2.0 34 ------- null}
h -t 0.627500000000001 -s 0 -d 1 -p cbr -e 210 -c 0 -i 34 -a 0 -x {0.0 2.0 -1 ------- null}
r -t 0.629590000000001 -s 0 -d 1 -p cbr -e 210 -c 0 -i 29 -a 0 -x {0.0 2.0 29 ------- null}
+ -t 0.629590000000001 -s 1 -d 2 -p cbr -e 210 -c 0 -i 29 -a 0 -x {0.0 2.0 29 ------- null}
d -t 0.629590000000001 -s 1 -d 2 -p cbr -e 210 -c 0 -i 29 -a 0 -x {0.0 2.0 29 ------- null}
- -t 0.630039999999999 -s 1 -d 2 -p cbr -e 210 -c 0 -i 27 -a 0 -x {0.0 2.0 27 ------- null}
h -t 0.630039999999999 -s 1 -d 2 -p cbr -e 210 -c 0 -i 27 -a 0 -x {0.0 2.0 -1 ------- null}
+ -t 0.631250000000001 -s 0 -d 1 -p cbr -e 210 -c 0 -i 35 -a 0 -x {0.0 2.0 35 ------- null}
- -t 0.631250000000001 -s 0 -d 1 -p cbr -e 210 -c 0 -i 35 -a 0 -x {0.0 2.0 35 ------- null}
h -t 0.631250000000001 -s 0 -d 1 -p cbr -e 210 -c 0 -i 35 -a 0 -x {0.0 2.0 -1 ------- null}
r -t 0.63324 -s 1 -d 2 -p cbr -e 210 -c 0 -i 21 -a 0 -x {0.0 2.0 21 ------- null}
r -t 0.633340000000001 -s 0 -d 1 -p cbr -e 210 -c 0 -i 30 -a 0 -x {0.0 2.0 30 ------- null}
+ -t 0.633340000000001 -s 1 -d 2 -p cbr -e 210 -c 0 -i 30 -a 0 -x {0.0 2.0 30 ------- null}
+ -t 0.635000000000001 -s 0 -d 1 -p cbr -e 210 -c 0 -i 36 -a 0 -x {0.0 2.0 36 ------- null}
- -t 0.635000000000001 -s 0 -d 1 -p cbr -e 210 -c 0 -i 36 -a 0 -x {0.0 2.0 36 ------- null}
h -t 0.635000000000001 -s 0 -d 1 -p cbr -e 210 -c 0 -i 36 -a 0 -x {0.0 2.0 -1 ------- null}
r -t 0.637090000000001 -s 0 -d 1 -p cbr -e 210 -c 0 -i 31 -a 0 -x {0.0 2.0 31 ------- null}
+ -t 0.637090000000001 -s 1 -d 2 -p cbr -e 210 -c 0 -i 31 -a 0 -x {0.0 2.0 31 ------- null}
d -t 0.637090000000001 -s 1 -d 2 -p cbr -e 210 -c 0 -i 31 -a 0 -x {0.0 2.0 31 ------- null}
- -t 0.638439999999999 -s 1 -d 2 -p cbr -e 210 -c 0 -i 30 -a 0 -x {0.0 2.0 30 ------- null}
h -t 0.638439999999999 -s 1 -d 2 -p cbr -e 210 -c 0 -i 30 -a 0 -x {0.0 2.0 -1 ------- null}
+ -t 0.638750000000001 -s 0 -d 1 -p cbr -e 210 -c 0 -i 37 -a 0 -x {0.0 2.0 37 ------- null}
- -t 0.638750000000001 -s 0 -d 1 -p cbr -e 210 -c 0 -i 37 -a 0 -x {0.0 2.0 37 ------- null}
h -t 0.638750000000001 -s 0 -d 1 -p cbr -e 210 -c 0 -i 37 -a 0 -x {0.0 2.0 -1 ------- null}
r -t 0.640840000000001 -s 0 -d 1 -p cbr -e 210 -c 0 -i 32 -a 0 -x {0.0 2.0 32 ------- null}
+ -t 0.640840000000001 -s 1 -d 2 -p cbr -e 210 -c 0 -i 32 -a 0 -x {0.0 2.0 32 ------- null}
r -t 0.64164 -s 1 -d 2 -p cbr -e 210 -c 0 -i 23 -a 0 -x {0.0 2.0 23 ------- null}
+ -t 0.642500000000001 -s 0 -d 1 -p cbr -e 210 -c 0 -i 38 -a 0 -x {0.0 2.0 38 ------- null}
- -t 0.642500000000001 -s 0 -d 1 -p cbr -e 210 -c 0 -i 38 -a 0 -x {0.0 2.0 38 ------- null}
h -t 0.642500000000001 -s 0 -d 1 -p cbr -e 210 -c 0 -i 38 -a 0 -x {0.0 2.0 -1 ------- null}
r -t 0.644590000000001 -s 0 -d 1 -p cbr -e 210 -c 0 -i 33 -a 0 -x {0.0 2.0 33 ------- null}
+ -t 0.644590000000001 -s 1 -d 2 -p cbr -e 210 -c 0 -i 33 -a 0 -x {0.0 2.0 33 ------- null}
d -t 0.644590000000001 -s 1 -d 2 -p cbr -e 210 -c 0 -i 33 -a 0 -x {0.0 2.0 33 ------- null}
+ -t 0.646250000000001 -s 0 -d 1 -p cbr -e 210 -c 0 -i 39 -a 0 -x {0.0 2.0 39 ------- null}
- -t 0.646250000000001 -s 0 -d 1 -p cbr -e 210 -c 0 -i 39 -a 0 -x {0.0 2.0 39 ------- null}
h -t 0.646250000000001 -s 0 -d 1 -p cbr -e 210 -c 0 -i 39 -a 0 -x {0.0 2.0 -1 ------- null}
- -t 0.646839999999999 -s 1 -d 2 -p cbr -e 210 -c 0 -i 32 -a 0 -x {0.0 2.0 32 ------- null}
h -t 0.646839999999999 -s 1 -d 2 -p cbr -e 210 -c 0 -i 32 -a 0 -x {0.0 2.0 -1 ------- null}
r -t 0.648340000000001 -s 0 -d 1 -p cbr -e 210 -c 0 -i 34 -a 0 -x {0.0 2.0 34 ------- null}
+ -t 0.648340000000001 -s 1 -d 2 -p cbr -e 210 -c 0 -i 34 -a 0 -x {0.0 2.0 34 ------- null}
+ -t 0.650000000000001 -s 0 -d 1 -p cbr -e 210 -c 0 -i 40 -a 0 -x {0.0 2.0 40 ------- null}
- -t 0.650000000000001 -s 0 -d 1 -p cbr -e 210 -c 0 -i 40 -a 0 -x {0.0 2.0 40 ------- null}
h -t 0.650000000000001 -s 0 -d 1 -p cbr -e 210 -c 0 -i 40 -a 0 -x {0.0 2.0 -1 ------- null}
r -t 0.65004 -s 1 -d 2 -p cbr -e 210 -c 0 -i 25 -a 0 -x {0.0 2.0 25 ------- null}
r -t 0.652090000000001 -s 0 -d 1 -p cbr -e 210 -c 0 -i 35 -a 0 -x {0.0 2.0 35 ------- null}
+ -t 0.652090000000001 -s 1 -d 2 -p cbr -e 210 -c 0 -i 35 -a 0 -x {0.0 2.0 35 ------- null}
d -t 0.652090000000001 -s 1 -d 2 -p cbr -e 210 -c 0 -i 35 -a 0 -x {0.0 2.0 35 ------- null}
+ -t 0.653750000000001 -s 0 -d 1 -p cbr -e 210 -c 0 -i 41 -a 0 -x {0.0 2.0 41 ------- null}
- -t 0.653750000000001 -s 0 -d 1 -p cbr -e 210 -c 0 -i 41 -a 0 -x {0.0 2.0 41 ------- null}
h -t 0.653750000000001 -s 0 -d 1 -p cbr -e 210 -c 0 -i 41 -a 0 -x {0.0 2.0 -1 ------- null}
- -t 0.655239999999999 -s 1 -d 2 -p cbr -e 210 -c 0 -i 34 -a 0 -x {0.0 2.0 34 ------- null}
h -t 0.655239999999999 -s 1 -d 2 -p cbr -e 210 -c 0 -i 34 -a 0 -x {0.0 2.0 -1 ------- null}
r -t 0.655840000000001 -s 0 -d 1 -p cbr -e 210 -c 0 -i 36 -a 0 -x {0.0 2.0 36 ------- null}
+ -t 0.655840000000001 -s 1 -d 2 -p cbr -e 210 -c 0 -i 36 -a 0 -x {0.0 2.0 36 ------- null}
+ -t 0.657500000000001 -s 0 -d 1 -p cbr -e 210 -c 0 -i 42 -a 0 -x {0.0 2.0 42 ------- null}
- -t 0.657500000000001 -s 0 -d 1 -p cbr -e 210 -c 0 -i 42 -a 0 -x {0.0 2.0 42 ------- null}
h -t 0.657500000000001 -s 0 -d 1 -p cbr -e 210 -c 0 -i 42 -a 0 -x {0.0 2.0 -1 ------- null}
r -t 0.658439999999999 -s 1 -d 2 -p cbr -e 210 -c 0 -i 27 -a 0 -x {0.0 2.0 27 ------- null}
r -t 0.659590000000001 -s 0 -d 1 -p cbr -e 210 -c 0 -i 37 -a 0 -x {0.0 2.0 37 ------- null}
+ -t 0.659590000000001 -s 1 -d 2 -p cbr -e 210 -c 0 -i 37 -a 0 -x {0.0 2.0 37 ------- null}
d -t 0.659590000000001 -s 1 -d 2 -p cbr -e 210 -c 0 -i 37 -a 0 -x {0.0 2.0 37 ------- null}
+ -t 0.661250000000001 -s 0 -d 1 -p cbr -e 210 -c 0 -i 43 -a 0 -x {0.0 2.0 43 ------- null}
- -t 0.661250000000001 -s 0 -d 1 -p cbr -e 210 -c 0 -i 43 -a 0 -x {0.0 2.0 43 ------- null}
h -t 0.661250000000001 -s 0 -d 1 -p cbr -e 210 -c 0 -i 43 -a 0 -x {0.0 2.0 -1 ------- null}
r -t 0.663340000000001 -s 0 -d 1 -p cbr -e 210 -c 0 -i 38 -a 0 -x {0.0 2.0 38 ------- null}
+ -t 0.663340000000001 -s 1 -d 2 -p cbr -e 210 -c 0 -i 38 -a 0 -x {0.0 2.0 38 ------- null}
d -t 0.663340000000001 -s 1 -d 2 -p cbr -e 210 -c 0 -i 38 -a 0 -x {0.0 2.0 38 ------- null}
- -t 0.663639999999999 -s 1 -d 2 -p cbr -e 210 -c 0 -i 36 -a 0 -x {0.0 2.0 36 ------- null}
h -t 0.663639999999999 -s 1 -d 2 -p cbr -e 210 -c 0 -i 36 -a 0 -x {0.0 2.0 -1 ------- null}
+ -t 0.665000000000001 -s 0 -d 1 -p cbr -e 210 -c 0 -i 44 -a 0 -x {0.0 2.0 44 ------- null}
- -t 0.665000000000001 -s 0 -d 1 -p cbr -e 210 -c 0 -i 44 -a 0 -x {0.0 2.0 44 ------- null}
h -t 0.665000000000001 -s 0 -d 1 -p cbr -e 210 -c 0 -i 44 -a 0 -x {0.0 2.0 -1 ------- null}
r -t 0.666839999999999 -s 1 -d 2 -p cbr -e 210 -c 0 -i 30 -a 0 -x {0.0 2.0 30 ------- null}
r -t 0.667090000000001 -s 0 -d 1 -p cbr -e 210 -c 0 -i 39 -a 0 -x {0.0 2.0 39 ------- null}
+ -t 0.667090000000001 -s 1 -d 2 -p cbr -e 210 -c 0 -i 39 -a 0 -x {0.0 2.0 39 ------- null}
+ -t 0.668750000000001 -s 0 -d 1 -p cbr -e 210 -c 0 -i 45 -a 0 -x {0.0 2.0 45 ------- null}
- -t 0.668750000000001 -s 0 -d 1 -p cbr -e 210 -c 0 -i 45 -a 0 -x {0.0 2.0 45 ------- null}
h -t 0.668750000000001 -s 0 -d 1 -p cbr -e 210 -c 0 -i 45 -a 0 -x {0.0 2.0 -1 ------- null}
r -t 0.670840000000001 -s 0 -d 1 -p cbr -e 210 -c 0 -i 40 -a 0 -x {0.0 2.0 40 ------- null}
+ -t 0.670840000000001 -s 1 -d 2 -p cbr -e 210 -c 0 -i 40 -a 0 -x {0.0 2.0 40 ------- null}
d -t 0.670840000000001 -s 1 -d 2 -p cbr -e 210 -c 0 -i 40 -a 0 -x {0.0 2.0 40 ------- null}
- -t 0.672039999999999 -s 1 -d 2 -p cbr -e 210 -c 0 -i 39 -a 0 -x {0.0 2.0 39 ------- null}
h -t 0.672039999999999 -s 1 -d 2 -p cbr -e 210 -c 0 -i 39 -a 0 -x {0.0 2.0 -1 ------- null}
+ -t 0.672500000000001 -s 0 -d 1 -p cbr -e 210 -c 0 -i 46 -a 0 -x {0.0 2.0 46 ------- null}
- -t 0.672500000000001 -s 0 -d 1 -p cbr -e 210 -c 0 -i 46 -a 0 -x {0.0 2.0 46 ------- null}
h -t 0.672500000000001 -s 0 -d 1 -p cbr -e 210 -c 0 -i 46 -a 0 -x {0.0 2.0 -1 ------- null}
r -t 0.674590000000001 -s 0 -d 1 -p cbr -e 210 -c 0 -i 41 -a 0 -x {0.0 2.0 41 ------- null}
+ -t 0.674590000000001 -s 1 -d 2 -p cbr -e 210 -c 0 -i 41 -a 0 -x {0.0 2.0 41 ------- null}
r -t 0.675239999999999 -s 1 -d 2 -p cbr -e 210 -c 0 -i 32 -a 0 -x {0.0 2.0 32 ------- null}
+ -t 0.676250000000001 -s 0 -d 1 -p cbr -e 210 -c 0 -i 47 -a 0 -x {0.0 2.0 47 ------- null}
- -t 0.676250000000001 -s 0 -d 1 -p cbr -e 210 -c 0 -i 47 -a 0 -x {0.0 2.0 47 ------- null}
h -t 0.676250000000001 -s 0 -d 1 -p cbr -e 210 -c 0 -i 47 -a 0 -x {0.0 2.0 -1 ------- null}
r -t 0.678340000000001 -s 0 -d 1 -p cbr -e 210 -c 0 -i 42 -a 0 -x {0.0 2.0 42 ------- null}
+ -t 0.678340000000001 -s 1 -d 2 -p cbr -e 210 -c 0 -i 42 -a 0 -x {0.0 2.0 42 ------- null}
d -t 0.678340000000001 -s 1 -d 2 -p cbr -e 210 -c 0 -i 42 -a 0 -x {0.0 2.0 42 ------- null}
+ -t 0.680000000000001 -s 0 -d 1 -p cbr -e 210 -c 0 -i 48 -a 0 -x {0.0 2.0 48 ------- null}
- -t 0.680000000000001 -s 0 -d 1 -p cbr -e 210 -c 0 -i 48 -a 0 -x {0.0 2.0 48 ------- null}
h -t 0.680000000000001 -s 0 -d 1 -p cbr -e 210 -c 0 -i 48 -a 0 -x {0.0 2.0 -1 ------- null}
- -t 0.680439999999999 -s 1 -d 2 -p cbr -e 210 -c 0 -i 41 -a 0 -x {0.0 2.0 41 ------- null}
h -t 0.680439999999999 -s 1 -d 2 -p cbr -e 210 -c 0 -i 41 -a 0 -x {0.0 2.0 -1 ------- null}
r -t 0.682090000000001 -s 0 -d 1 -p cbr -e 210 -c 0 -i 43 -a 0 -x {0.0 2.0 43 ------- null}
+ -t 0.682090000000001 -s 1 -d 2 -p cbr -e 210 -c 0 -i 43 -a 0 -x {0.0 2.0 43 ------- null}
r -t 0.683639999999999 -s 1 -d 2 -p cbr -e 210 -c 0 -i 34 -a 0 -x {0.0 2.0 34 ------- null}
+ -t 0.683750000000002 -s 0 -d 1 -p cbr -e 210 -c 0 -i 49 -a 0 -x {0.0 2.0 49 ------- null}
- -t 0.683750000000002 -s 0 -d 1 -p cbr -e 210 -c 0 -i 49 -a 0 -x {0.0 2.0 49 ------- null}
h -t 0.683750000000002 -s 0 -d 1 -p cbr -e 210 -c 0 -i 49 -a 0 -x {0.0 2.0 -1 ------- null}
r -t 0.685840000000001 -s 0 -d 1 -p cbr -e 210 -c 0 -i 44 -a 0 -x {0.0 2.0 44 ------- null}
+ -t 0.685840000000001 -s 1 -d 2 -p cbr -e 210 -c 0 -i 44 -a 0 -x {0.0 2.0 44 ------- null}
d -t 0.685840000000001 -s 1 -d 2 -p cbr -e 210 -c 0 -i 44 -a 0 -x {0.0 2.0 44 ------- null}
+ -t 0.687500000000002 -s 0 -d 1 -p cbr -e 210 -c 0 -i 50 -a 0 -x {0.0 2.0 50 ------- null}
- -t 0.687500000000002 -s 0 -d 1 -p cbr -e 210 -c 0 -i 50 -a 0 -x {0.0 2.0 50 ------- null}
h -t 0.687500000000002 -s 0 -d 1 -p cbr -e 210 -c 0 -i 50 -a 0 -x {0.0 2.0 -1 ------- null}
- -t 0.688839999999999 -s 1 -d 2 -p cbr -e 210 -c 0 -i 43 -a 0 -x {0.0 2.0 43 ------- null}
h -t 0.688839999999999 -s 1 -d 2 -p cbr -e 210 -c 0 -i 43 -a 0 -x {0.0 2.0 -1 ------- null}
r -t 0.689590000000001 -s 0 -d 1 -p cbr -e 210 -c 0 -i 45 -a 0 -x {0.0 2.0 45 ------- null}
+ -t 0.689590000000001 -s 1 -d 2 -p cbr -e 210 -c 0 -i 45 -a 0 -x {0.0 2.0 45 ------- null}
+ -t 0.691250000000002 -s 0 -d 1 -p cbr -e 210 -c 0 -i 51 -a 0 -x {0.0 2.0 51 ------- null}
- -t 0.691250000000002 -s 0 -d 1 -p cbr -e 210 -c 0 -i 51 -a 0 -x {0.0 2.0 51 ------- null}
h -t 0.691250000000002 -s 0 -d 1 -p cbr -e 210 -c 0 -i 51 -a 0 -x {0.0 2.0 -1 ------- null}
r -t 0.692039999999999 -s 1 -d 2 -p cbr -e 210 -c 0 -i 36 -a 0 -x {0.0 2.0 36 ------- null}
r -t 0.693340000000001 -s 0 -d 1 -p cbr -e 210 -c 0 -i 46 -a 0 -x {0.0 2.0 46 ------- null}
+ -t 0.693340000000001 -s 1 -d 2 -p cbr -e 210 -c 0 -i 46 -a 0 -x {0.0 2.0 46 ------- null}
d -t 0.693340000000001 -s 1 -d 2 -p cbr -e 210 -c 0 -i 46 -a 0 -x {0.0 2.0 46 ------- null}
+ -t 0.695000000000002 -s 0 -d 1 -p cbr -e 210 -c 0 -i 52 -a 0 -x {0.0 2.0 52 ------- null}
- -t 0.695000000000002 -s 0 -d 1 -p cbr -e 210 -c 0 -i 52 -a 0 -x {0.0 2.0 52 ------- null}
h -t 0.695000000000002 -s 0 -d 1 -p cbr -e 210 -c 0 -i 52 -a 0 -x {0.0 2.0 -1 ------- null}