+ 0.6 1 2 tcp 40 ------- 0 1.0 3.1 0 0
- 0.6 1 2 tcp 40 ------- 0 1.0 3.1 0 0
r 0.62016 1 2 tcp 40 ------- 0 1.0 3.1 0 0
+ 0.62016 2 3 tcp 40 ------- 0 1.0 3.1 0 0
- 0.62016 2 3 tcp 40 ------- 0 1.0 3.1 0 0
r 0.64032 2 3 tcp 40 ------- 0 1.0 3.1 0 0
+ 0.64032 3 2 ack 40 ------- 0 3.1 1.0 0 1
- 0.64032 3 2 ack 40 ------- 0 3.1 1.0 0 1
r 0.66048 3 2 ack 40 ------- 0 3.1 1.0 0 1
+ 0.66048 2 1 ack 40 ------- 0 3.1 1.0 0 1
- 0.66048 2 1 ack 40 ------- 0 3.1 1.0 0 1
r 0.68064 2 1 ack 40 ------- 0 3.1 1.0 0 1
+ 0.68064 1 2 tcp 1040 ------- 0 1.0 3.1 1 2
- 0.68064 1 2 tcp 1040 ------- 0 1.0 3.1 1 2
+ 0.68064 1 2 tcp 1040 ------- 0 1.0 3.1 2 3
- 0.6848 1 2 tcp 1040 ------- 0 1.0 3.1 2 3
r 0.7048 1 2 tcp 1040 ------- 0 1.0 3.1 1 2
+ 0.7048 2 3 tcp 1040 ------- 0 1.0 3.1 1 2
- 0.7048 2 3 tcp 1040 ------- 0 1.0 3.1 1 2
r 0.70896 1 2 tcp 1040 ------- 0 1.0 3.1 2 3
+ 0.70896 2 3 tcp 1040 ------- 0 1.0 3.1 2 3
- 0.70896 2 3 tcp 1040 ------- 0 1.0 3.1 2 3
r 0.72896 2 3 tcp 1040 ------- 0 1.0 3.1 1 2
+ 0.72896 3 2 ack 40 ------- 0 3.1 1.0 1 4
- 0.72896 3 2 ack 40 ------- 0 3.1 1.0 1 4
r 0.73312 2 3 tcp 1040 ------- 0 1.0 3.1 2 3
+ 0.73312 3 2 ack 40 ------- 0 3.1 1.0 2 5
- 0.73312 3 2 ack 40 ------- 0 3.1 1.0 2 5
r 0.74912 3 2 ack 40 ------- 0 3.1 1.0 1 4
+ 0.74912 2 1 ack 40 ------- 0 3.1 1.0 1 4
- 0.74912 2 1 ack 40 ------- 0 3.1 1.0 1 4
r 0.75328 3 2 ack 40 ------- 0 3.1 1.0 2 5
+ 0.75328 2 1 ack 40 ------- 0 3.1 1.0 2 5
- 0.75328 2 1 ack 40 ------- 0 3.1 1.0 2 5
r 0.76928 2 1 ack 40 ------- 0 3.1 1.0 1 4
+ 0.76928 1 2 tcp 1040 ------- 0 1.0 3.1 3 6
- 0.76928 1 2 tcp 1040 ------- 0 1.0 3.1 3 6
+ 0.76928 1 2 tcp 1040 ------- 0 1.0 3.1 4 7
r 0.77344 2 1 ack 40 ------- 0 3.1 1.0 2 5
+ 0.77344 1 2 tcp 1040 ------- 0 1.0 3.1 5 8
+ 0.77344 1 2 tcp 1040 ------- 0 1.0 3.1 6 9
- 0.77344 1 2 tcp 1040 ------- 0 1.0 3.1 4 7
- 0.7776 1 2 tcp 1040 ------- 0 1.0 3.1 5 8
- 0.78176 1 2 tcp 1040 ------- 0 1.0 3.1 6 9
r 0.79344 1 2 tcp 1040 ------- 0 1.0 3.1 3 6
+ 0.79344 2 3 tcp 1040 ------- 0 1.0 3.1 3 6
- 0.79344 2 3 tcp 1040 ------- 0 1.0 3.1 3 6
r 0.7976 1 2 tcp 1040 ------- 0 1.0 3.1 4 7
+ 0.7976 2 3 tcp 1040 ------- 0 1.0 3.1 4 7
- 0.7976 2 3 tcp 1040 ------- 0 1.0 3.1 4 7
r 0.80176 1 2 tcp 1040 ------- 0 1.0 3.1 5 8
+ 0.80176 2 3 tcp 1040 ------- 0 1.0 3.1 5 8
- 0.80176 2 3 tcp 1040 ------- 0 1.0 3.1 5 8
r 0.80592 1 2 tcp 1040 ------- 0 1.0 3.1 6 9
+ 0.80592 2 3 tcp 1040 ------- 0 1.0 3.1 6 9
- 0.80592 2 3 tcp 1040 ------- 0 1.0 3.1 6 9
r 0.8176 2 3 tcp 1040 ------- 0 1.0 3.1 3 6
+ 0.8176 3 2 ack 40 ------- 0 3.1 1.0 3 10
- 0.8176 3 2 ack 40 ------- 0 3.1 1.0 3 10
r 0.82176 2 3 tcp 1040 ------- 0 1.0 3.1 4 7
+ 0.82176 3 2 ack 40 ------- 0 3.1 1.0 4 11
- 0.82176 3 2 ack 40 ------- 0 3.1 1.0 4 11
r 0.82592 2 3 tcp 1040 ------- 0 1.0 3.1 5 8
+ 0.82592 3 2 ack 40 ------- 0 3.1 1.0 5 12
- 0.82592 3 2 ack 40 ------- 0 3.1 1.0 5 12
r 0.83008 2 3 tcp 1040 ------- 0 1.0 3.1 6 9
+ 0.83008 3 2 ack 40 ------- 0 3.1 1.0 6 13
- 0.83008 3 2 ack 40 ------- 0 3.1 1.0 6 13
r 0.83776 3 2 ack 40 ------- 0 3.1 1.0 3 10
+ 0.83776 2 1 ack 40 ------- 0 3.1 1.0 3 10
- 0.83776 2 1 ack 40 ------- 0 3.1 1.0 3 10
r 0.84192 3 2 ack 40 ------- 0 3.1 1.0 4 11
+ 0.84192 2 1 ack 40 ------- 0 3.1 1.0 4 11
- 0.84192 2 1 ack 40 ------- 0 3.1 1.0 4 11
r 0.84608 3 2 ack 40 ------- 0 3.1 1.0 5 12
+ 0.84608 2 1 ack 40 ------- 0 3.1 1.0 5 12
- 0.84608 2 1 ack 40 ------- 0 3.1 1.0 5 12
r 0.85024 3 2 ack 40 ------- 0 3.1 1.0 6 13
+ 0.85024 2 1 ack 40 ------- 0 3.1 1.0 6 13
- 0.85024 2 1 ack 40 ------- 0 3.1 1.0 6 13
r 0.85792 2 1 ack 40 ------- 0 3.1 1.0 3 10
+ 0.85792 1 2 tcp 1040 ------- 0 1.0 3.1 7 14
- 0.85792 1 2 tcp 1040 ------- 0 1.0 3.1 7 14
+ 0.85792 1 2 tcp 1040 ------- 0 1.0 3.1 8 15
r 0.86208 2 1 ack 40 ------- 0 3.1 1.0 4 11
+ 0.86208 1 2 tcp 1040 ------- 0 1.0 3.1 9 16
+ 0.86208 1 2 tcp 1040 ------- 0 1.0 3.1 10 17
- 0.86208 1 2 tcp 1040 ------- 0 1.0 3.1 8 15
r 0.86624 2 1 ack 40 ------- 0 3.1 1.0 5 12
+ 0.86624 1 2 tcp 1040 ------- 0 1.0 3.1 11 18
+ 0.86624 1 2 tcp 1040 ------- 0 1.0 3.1 12 19
- 0.86624 1 2 tcp 1040 ------- 0 1.0 3.1 9 16
r 0.8704 2 1 ack 40 ------- 0 3.1 1.0 6 13
+ 0.8704 1 2 tcp 1040 ------- 0 1.0 3.1 13 20
+ 0.8704 1 2 tcp 1040 ------- 0 1.0 3.1 14 21
- 0.8704 1 2 tcp 1040 ------- 0 1.0 3.1 10 17
- 0.87456 1 2 tcp 1040 ------- 0 1.0 3.1 11 18
- 0.87872 1 2 tcp 1040 ------- 0 1.0 3.1 12 19
r 0.88208 1 2 tcp 1040 ------- 0 1.0 3.1 7 14
+ 0.88208 2 3 tcp 1040 ------- 0 1.0 3.1 7 14
- 0.88208 2 3 tcp 1040 ------- 0 1.0 3.1 7 14
- 0.88288 1 2 tcp 1040 ------- 0 1.0 3.1 13 20
r 0.88624 1 2 tcp 1040 ------- 0 1.0 3.1 8 15
+ 0.88624 2 3 tcp 1040 ------- 0 1.0 3.1 8 15
- 0.88624 2 3 tcp 1040 ------- 0 1.0 3.1 8 15
- 0.88704 1 2 tcp 1040 ------- 0 1.0 3.1 14 21
r 0.8904 1 2 tcp 1040 ------- 0 1.0 3.1 9 16
+ 0.8904 2 3 tcp 1040 ------- 0 1.0 3.1 9 16
- 0.8904 2 3 tcp 1040 ------- 0 1.0 3.1 9 16
r 0.89456 1 2 tcp 1040 ------- 0 1.0 3.1 10 17
+ 0.89456 2 3 tcp 1040 ------- 0 1.0 3.1 10 17
- 0.89456 2 3 tcp 1040 ------- 0 1.0 3.1 10 17
r 0.89872 1 2 tcp 1040 ------- 0 1.0 3.1 11 18
+ 0.89872 2 3 tcp 1040 ------- 0 1.0 3.1 11 18
- 0.89872 2 3 tcp 1040 ------- 0 1.0 3.1 11 18
r 0.90288 1 2 tcp 1040 ------- 0 1.0 3.1 12 19
+ 0.90288 2 3 tcp 1040 ------- 0 1.0 3.1 12 19
- 0.90288 2 3 tcp 1040 ------- 0 1.0 3.1 12 19
r 0.90624 2 3 tcp 1040 ------- 0 1.0 3.1 7 14
+ 0.90624 3 2 ack 40 ------- 0 3.1 1.0 7 22
- 0.90624 3 2 ack 40 ------- 0 3.1 1.0 7 22
r 0.90704 1 2 tcp 1040 ------- 0 1.0 3.1 13 20
+ 0.90704 2 3 tcp 1040 ------- 0 1.0 3.1 13 20
- 0.90704 2 3 tcp 1040 ------- 0 1.0 3.1 13 20
r 0.9104 2 3 tcp 1040 ------- 0 1.0 3.1 8 15
+ 0.9104 3 2 ack 40 ------- 0 3.1 1.0 8 23
- 0.9104 3 2 ack 40 ------- 0 3.1 1.0 8 23
r 0.9112 1 2 tcp 1040 ------- 0 1.0 3.1 14 21
+ 0.9112 2 3 tcp 1040 ------- 0 1.0 3.1 14 21
- 0.9112 2 3 tcp 1040 ------- 0 1.0 3.1 14 21
r 0.91456 2 3 tcp 1040 ------- 0 1.0 3.1 9 16
+ 0.91456 3 2 ack 40 ------- 0 3.1 1.0 9 24
- 0.91456 3 2 ack 40 ------- 0 3.1 1.0 9 24
r 0.91872 2 3 tcp 1040 ------- 0 1.0 3.1 10 17
+ 0.91872 3 2 ack 40 ------- 0 3.1 1.0 10 25
- 0.91872 3 2 ack 40 ------- 0 3.1 1.0 10 25
r 0.92288 2 3 tcp 1040 ------- 0 1.0 3.1 11 18
+ 0.92288 3 2 ack 40 ------- 0 3.1 1.0 11 26
- 0.92288 3 2 ack 40 ------- 0 3.1 1.0 11 26
r 0.9264 3 2 ack 40 ------- 0 3.1 1.0 7 22
+ 0.9264 2 1 ack 40 ------- 0 3.1 1.0 7 22
- 0.9264 2 1 ack 40 ------- 0 3.1 1.0 7 22
r 0.92704 2 3 tcp 1040 ------- 0 1.0 3.1 12 19
+ 0.92704 3 2 ack 40 ------- 0 3.1 1.0 12 27
- 0.92704 3 2 ack 40 ------- 0 3.1 1.0 12 27
r 0.93056 3 2 ack 40 ------- 0 3.1 1.0 8 23
+ 0.93056 2 1 ack 40 ------- 0 3.1 1.0 8 23
- 0.93056 2 1 ack 40 ------- 0 3.1 1.0 8 23
r 0.9312 2 3 tcp 1040 ------- 0 1.0 3.1 13 20
+ 0.9312 3 2 ack 40 ------- 0 3.1 1.0 13 28
- 0.9312 3 2 ack 40 ------- 0 3.1 1.0 13 28
r 0.93472 3 2 ack 40 ------- 0 3.1 1.0 9 24
+ 0.93472 2 1 ack 40 ------- 0 3.1 1.0 9 24
- 0.93472 2 1 ack 40 ------- 0 3.1 1.0 9 24
r 0.93536 2 3 tcp 1040 ------- 0 1.0 3.1 14 21
+ 0.93536 3 2 ack 40 ------- 0 3.1 1.0 14 29
- 0.93536 3 2 ack 40 ------- 0 3.1 1.0 14 29
r 0.93888 3 2 ack 40 ------- 0 3.1 1.0 10 25
+ 0.93888 2 1 ack 40 ------- 0 3.1 1.0 10 25
- 0.93888 2 1 ack 40 ------- 0 3.1 1.0 10 25
r 0.94304 3 2 ack 40 ------- 0 3.1 1.0 11 26
+ 0.94304 2 1 ack 40 ------- 0 3.1 1.0 11 26
- 0.94304 2 1 ack 40 ------- 0 3.1 1.0 11 26
r 0.94656 2 1 ack 40 ------- 0 3.1 1.0 7 22
+ 0.94656 1 2 tcp 1040 ------- 0 1.0 3.1 15 30
- 0.94656 1 2 tcp 1040 ------- 0 1.0 3.1 15 30
+ 0.94656 1 2 tcp 1040 ------- 0 1.0 3.1 16 31
r 0.9472 3 2 ack 40 ------- 0 3.1 1.0 12 27
+ 0.9472 2 1 ack 40 ------- 0 3.1 1.0 12 27
- 0.9472 2 1 ack 40 ------- 0 3.1 1.0 12 27
r 0.95072 2 1 ack 40 ------- 0 3.1 1.0 8 23
+ 0.95072 1 2 tcp 1040 ------- 0 1.0 3.1 17 32
+ 0.95072 1 2 tcp 1040 ------- 0 1.0 3.1 18 33
- 0.95072 1 2 tcp 1040 ------- 0 1.0 3.1 16 31
r 0.95136 3 2 ack 40 ------- 0 3.1 1.0 13 28
+ 0.95136 2 1 ack 40 ------- 0 3.1 1.0 13 28
- 0.95136 2 1 ack 40 ------- 0 3.1 1.0 13 28
r 0.95488 2 1 ack 40 ------- 0 3.1 1.0 9 24
+ 0.95488 1 2 tcp 1040 ------- 0 1.0 3.1 19 34
+ 0.95488 1 2 tcp 1040 ------- 0 1.0 3.1 20 35
- 0.95488 1 2 tcp 1040 ------- 0 1.0 3.1 17 32
r 0.95552 3 2 ack 40 ------- 0 3.1 1.0 14 29
+ 0.95552 2 1 ack 40 ------- 0 3.1 1.0 14 29
- 0.95552 2 1 ack 40 ------- 0 3.1 1.0 14 29
r 0.95904 2 1 ack 40 ------- 0 3.1 1.0 10 25
+ 0.95904 1 2 tcp 1040 ------- 0 1.0 3.1 21 36
+ 0.95904 1 2 tcp 1040 ------- 0 1.0 3.1 22 37
- 0.95904 1 2 tcp 1040 ------- 0 1.0 3.1 18 33
r 0.9632 2 1 ack 40 ------- 0 3.1 1.0 11 26
+ 0.9632 1 2 tcp 1040 ------- 0 1.0 3.1 23 38
+ 0.9632 1 2 tcp 1040 ------- 0 1.0 3.1 24 39
- 0.9632 1 2 tcp 1040 ------- 0 1.0 3.1 19 34
r 0.96736 2 1 ack 40 ------- 0 3.1 1.0 12 27
+ 0.96736 1 2 tcp 1040 ------- 0 1.0 3.1 25 40
+ 0.96736 1 2 tcp 1040 ------- 0 1.0 3.1 26 41
- 0.96736 1 2 tcp 1040 ------- 0 1.0 3.1 20 35
r 0.97072 1 2 tcp 1040 ------- 0 1.0 3.1 15 30
+ 0.97072 2 3 tcp 1040 ------- 0 1.0 3.1 15 30
- 0.97072 2 3 tcp 1040 ------- 0 1.0 3.1 15 30
r 0.97152 2 1 ack 40 ------- 0 3.1 1.0 13 28
+ 0.97152 1 2 tcp 1040 ------- 0 1.0 3.1 27 42
+ 0.97152 1 2 tcp 1040 ------- 0 1.0 3.1 28 43
- 0.97152 1 2 tcp 1040 ------- 0 1.0 3.1 21 36
r 0.97488 1 2 tcp 1040 ------- 0 1.0 3.1 16 31
+ 0.97488 2 3 tcp 1040 ------- 0 1.0 3.1 16 31
- 0.97488 2 3 tcp 1040 ------- 0 1.0 3.1 16 31
r 0.97568 2 1 ack 40 ------- 0 3.1 1.0 14 29
+ 0.97568 1 2 tcp 1040 ------- 0 1.0 3.1 29 44
+ 0.97568 1 2 tcp 1040 ------- 0 1.0 3.1 30 45
- 0.97568 1 2 tcp 1040 ------- 0 1.0 3.1 22 37
r 0.97904 1 2 tcp 1040 ------- 0 1.0 3.1 17 32
+ 0.97904 2 3 tcp 1040 ------- 0 1.0 3.1 17 32
- 0.97904 2 3 tcp 1040 ------- 0 1.0 3.1 17 32
- 0.97984 1 2 tcp 1040 ------- 0 1.0 3.1 23 38
r 0.9832 1 2 tcp 1040 ------- 0 1.0 3.1 18 33
+ 0.9832 2 3 tcp 1040 ------- 0 1.0 3.1 18 33
- 0.9832 2 3 tcp 1040 ------- 0 1.0 3.1 18 33
- 0.984 1 2 tcp 1040 ------- 0 1.0 3.1 24 39
r 0.98736 1 2 tcp 1040 ------- 0 1.0 3.1 19 34
+ 0.98736 2 3 tcp 1040 ------- 0 1.0 3.1 19 34
- 0.98736 2 3 tcp 1040 ------- 0 1.0 3.1 19 34
- 0.98816 1 2 tcp 1040 ------- 0 1.0 3.1 25 40
r 0.99152 1 2 tcp 1040 ------- 0 1.0 3.1 20 35
+ 0.99152 2 3 tcp 1040 ------- 0 1.0 3.1 20 35
- 0.99152 2 3 tcp 1040 ------- 0 1.0 3.1 20 35
- 0.99232 1 2 tcp 1040 ------- 0 1.0 3.1 26 41
r 0.99488 2 3 tcp 1040 ------- 0 1.0 3.1 15 30
+ 0.99488 3 2 ack 40 ------- 0 3.1 1.0 15 46
- 0.99488 3 2 ack 40 ------- 0 3.1 1.0 15 46
r 0.99568 1 2 tcp 1040 ------- 0 1.0 3.1 21 36
+ 0.99568 2 3 tcp 1040 ------- 0 1.0 3.1 21 36
- 0.99568 2 3 tcp 1040 ------- 0 1.0 3.1 21 36
- 0.99648 1 2 tcp 1040 ------- 0 1.0 3.1 27 42
r 0.99904 2 3 tcp 1040 ------- 0 1.0 3.1 16 31
+ 0.99904 3 2 ack 40 ------- 0 3.1 1.0 16 47
- 0.99904 3 2 ack 40 ------- 0 3.1 1.0 16 47
r 0.99984 1 2 tcp 1040 ------- 0 1.0 3.1 22 37
+ 0.99984 2 3 tcp 1040 ------- 0 1.0 3.1 22 37
- 0.99984 2 3 tcp 1040 ------- 0 1.0 3.1 22 37
- 1.00064 1 2 tcp 1040 ------- 0 1.0 3.1 28 43
r 1.0032 2 3 tcp 1040 ------- 0 1.0 3.1 17 32
+ 1.0032 3 2 ack 40 ------- 0 3.1 1.0 17 48
- 1.0032 3 2 ack 40 ------- 0 3.1 1.0 17 48
r 1.004 1 2 tcp 1040 ------- 0 1.0 3.1 23 38
+ 1.004 2 3 tcp 1040 ------- 0 1.0 3.1 23 38
- 1.004 2 3 tcp 1040 ------- 0 1.0 3.1 23 38
- 1.0048 1 2 tcp 1040 ------- 0 1.0 3.1 29 44
r 1.00736 2 3 tcp 1040 ------- 0 1.0 3.1 18 33
+ 1.00736 3 2 ack 40 ------- 0 3.1 1.0 18 49
- 1.00736 3 2 ack 40 ------- 0 3.1 1.0 18 49
r 1.00816 1 2 tcp 1040 ------- 0 1.0 3.1 24 39
+ 1.00816 2 3 tcp 1040 ------- 0 1.0 3.1 24 39
- 1.00816 2 3 tcp 1040 ------- 0 1.0 3.1 24 39
- 1.00896 1 2 tcp 1040 ------- 0 1.0 3.1 30 45
r 1.01152 2 3 tcp 1040 ------- 0 1.0 3.1 19 34
+ 1.01152 3 2 ack 40 ------- 0 3.1 1.0 19 50
- 1.01152 3 2 ack 40 ------- 0 3.1 1.0 19 50
r 1.01232 1 2 tcp 1040 ------- 0 1.0 3.1 25 40
+ 1.01232 2 3 tcp 1040 ------- 0 1.0 3.1 25 40
- 1.01232 2 3 tcp 1040 ------- 0 1.0 3.1 25 40
r 1.01504 3 2 ack 40 ------- 0 3.1 1.0 15 46
+ 1.01504 2 1 ack 40 ------- 0 3.1 1.0 15 46
- 1.01504 2 1 ack 40 ------- 0 3.1 1.0 15 46
r 1.01568 2 3 tcp 1040 ------- 0 1.0 3.1 20 35
+ 1.01568 3 2 ack 40 ------- 0 3.1 1.0 20 51
- 1.01568 3 2 ack 40 ------- 0 3.1 1.0 20 51
r 1.01648 1 2 tcp 1040 ------- 0 1.0 3.1 26 41
+ 1.01648 2 3 tcp 1040 ------- 0 1.0 3.1 26 41
- 1.01648 2 3 tcp 1040 ------- 0 1.0 3.1 26 41
r 1.0192 3 2 ack 40 ------- 0 3.1 1.0 16 47
+ 1.0192 2 1 ack 40 ------- 0 3.1 1.0 16 47
- 1.0192 2 1 ack 40 ------- 0 3.1 1.0 16 47
r 1.01984 2 3 tcp 1040 ------- 0 1.0 3.1 21 36
+ 1.01984 3 2 ack 40 ------- 0 3.1 1.0 21 52
- 1.01984 3 2 ack 40 ------- 0 3.1 1.0 21 52
r 1.02064 1 2 tcp 1040 ------- 0 1.0 3.1 27 42
+ 1.02064 2 3 tcp 1040 ------- 0 1.0 3.1 27 42
- 1.02064 2 3 tcp 1040 ------- 0 1.0 3.1 27 42
r 1.02336 3 2 ack 40 ------- 0 3.1 1.0 17 48
+ 1.02336 2 1 ack 40 ------- 0 3.1 1.0 17 48
- 1.02336 2 1 ack 40 ------- 0 3.1 1.0 17 48
r 1.024 2 3 tcp 1040 ------- 0 1.0 3.1 22 37
+ 1.024 3 2 ack 40 ------- 0 3.1 1.0 22 53
- 1.024 3 2 ack 40 ------- 0 3.1 1.0 22 53
r 1.0248 1 2 tcp 1040 ------- 0 1.0 3.1 28 43
+ 1.0248 2 3 tcp 1040 ------- 0 1.0 3.1 28 43
- 1.0248 2 3 tcp 1040 ------- 0 1.0 3.1 28 43
r 1.02752 3 2 ack 40 ------- 0 3.1 1.0 18 49
+ 1.02752 2 1 ack 40 ------- 0 3.1 1.0 18 49
- 1.02752 2 1 ack 40 ------- 0 3.1 1.0 18 49
r 1.02816 2 3 tcp 1040 ------- 0 1.0 3.1 23 38
+ 1.02816 3 2 ack 40 ------- 0 3.1 1.0 23 54
- 1.02816 3 2 ack 40 ------- 0 3.1 1.0 23 54
r 1.02896 1 2 tcp 1040 ------- 0 1.0 3.1 29 44
+ 1.02896 2 3 tcp 1040 ------- 0 1.0 3.1 29 44
- 1.02896 2 3 tcp 1040 ------- 0 1.0 3.1 29 44
r 1.03168 3 2 ack 40 ------- 0 3.1 1.0 19 50
+ 1.03168 2 1 ack 40 ------- 0 3.1 1.0 19 50
- 1.03168 2 1 ack 40 ------- 0 3.1 1.0 19 50
r 1.03232 2 3 tcp 1040 ------- 0 1.0 3.1 24 39
+ 1.03232 3 2 ack 40 ------- 0 3.1 1.0 24 55
- 1.03232 3 2 ack 40 ------- 0 3.1 1.0 24 55
r 1.03312 1 2 tcp 1040 ------- 0 1.0 3.1 30 45
+ 1.03312 2 3 tcp 1040 ------- 0 1.0 3.1 30 45
- 1.03312 2 3 tcp 1040 ------- 0 1.0 3.1 30 45
r 1.0352 2 1 ack 40 ------- 0 3.1 1.0 15 46
+ 1.0352 1 2 tcp 1040 ------- 0 1.0 3.1 31 56
- 1.0352 1 2 tcp 1040 ------- 0 1.0 3.1 31 56
+ 1.0352 1 2 tcp 1040 ------- 0 1.0 3.1 32 57
r 1.03584 3 2 ack 40 ------- 0 3.1 1.0 20 51
+ 1.03584 2 1 ack 40 ------- 0 3.1 1.0 20 51
- 1.03584 2 1 ack 40 ------- 0 3.1 1.0 20 51
r 1.03648 2 3 tcp 1040 ------- 0 1.0 3.1 25 40
+ 1.03648 3 2 ack 40 ------- 0 3.1 1.0 25 58
- 1.03648 3 2 ack 40 ------- 0 3.1 1.0 25 58
r 1.03936 2 1 ack 40 ------- 0 3.1 1.0 16 47
+ 1.03936 1 2 tcp 1040 ------- 0 1.0 3.1 33 59
+ 1.03936 1 2 tcp 1040 ------- 0 1.0 3.1 34 60
- 1.03936 1 2 tcp 1040 ------- 0 1.0 3.1 32 57
r 1.04 3 2 ack 40 ------- 0 3.1 1.0 21 52
+ 1.04 2 1 ack 40 ------- 0 3.1 1.0 21 52
- 1.04 2 1 ack 40 ------- 0 3.1 1.0 21 52
r 1.04064 2 3 tcp 1040 ------- 0 1.0 3.1 26 41
+ 1.04064 3 2 ack 40 ------- 0 3.1 1.0 26 61
- 1.04064 3 2 ack 40 ------- 0 3.1 1.0 26 61
- 1.04352 1 2 tcp 1040 ------- 0 1.0 3.1 33 59
r 1.04352 2 1 ack 40 ------- 0 3.1 1.0 17 48
+ 1.04352 1 2 tcp 1040 ------- 0 1.0 3.1 35 62
+ 1.04352 1 2 tcp 1040 ------- 0 1.0 3.1 36 63
r 1.04416 3 2 ack 40 ------- 0 3.1 1.0 22 53
+ 1.04416 2 1 ack 40 ------- 0 3.1 1.0 22 53
- 1.04416 2 1 ack 40 ------- 0 3.1 1.0 22 53
r 1.0448 2 3 tcp 1040 ------- 0 1.0 3.1 27 42
+ 1.0448 3 2 ack 40 ------- 0 3.1 1.0 27 64
- 1.0448 3 2 ack 40 ------- 0 3.1 1.0 27 64
- 1.04768 1 2 tcp 1040 ------- 0 1.0 3.1 34 60
r 1.04768 2 1 ack 40 ------- 0 3.1 1.0 18 49
+ 1.04768 1 2 tcp 1040 ------- 0 1.0 3.1 37 65
+ 1.04768 1 2 tcp 1040 ------- 0 1.0 3.1 38 66
r 1.04832 3 2 ack 40 ------- 0 3.1 1.0 23 54
+ 1.04832 2 1 ack 40 ------- 0 3.1 1.0 23 54
- 1.04832 2 1 ack 40 ------- 0 3.1 1.0 23 54
r 1.04896 2 3 tcp 1040 ------- 0 1.0 3.1 28 43
+ 1.04896 3 2 ack 40 ------- 0 3.1 1.0 28 67
- 1.04896 3 2 ack 40 ------- 0 3.1 1.0 28 67
- 1.05184 1 2 tcp 1040 ------- 0 1.0 3.1 35 62
r 1.05184 2 1 ack 40 ------- 0 3.1 1.0 19 50
+ 1.05184 1 2 tcp 1040 ------- 0 1.0 3.1 39 68
r 1.05248 3 2 ack 40 ------- 0 3.1 1.0 24 55
+ 1.05248 2 1 ack 40 ------- 0 3.1 1.0 24 55
- 1.05248 2 1 ack 40 ------- 0 3.1 1.0 24 55
r 1.05312 2 3 tcp 1040 ------- 0 1.0 3.1 29 44
+ 1.05312 3 2 ack 40 ------- 0 3.1 1.0 29 69
- 1.05312 3 2 ack 40 ------- 0 3.1 1.0 29 69
- 1.056 1 2 tcp 1040 ------- 0 1.0 3.1 36 63
r 1.056 2 1 ack 40 ------- 0 3.1 1.0 20 51
+ 1.056 1 2 tcp 1040 ------- 0 1.0 3.1 40 70
r 1.05664 3 2 ack 40 ------- 0 3.1 1.0 25 58
+ 1.05664 2 1 ack 40 ------- 0 3.1 1.0 25 58
- 1.05664 2 1 ack 40 ------- 0 3.1 1.0 25 58
r 1.05728 2 3 tcp 1040 ------- 0 1.0 3.1 30 45
+ 1.05728 3 2 ack 40 ------- 0 3.1 1.0 30 71
- 1.05728 3 2 ack 40 ------- 0 3.1 1.0 30 71
r 1.05936 1 2 tcp 1040 ------- 0 1.0 3.1 31 56
+ 1.05936 2 3 tcp 1040 ------- 0 1.0 3.1 31 56
- 1.05936 2 3 tcp 1040 ------- 0 1.0 3.1 31 56
- 1.06016 1 2 tcp 1040 ------- 0 1.0 3.1 37 65
r 1.06016 2 1 ack 40 ------- 0 3.1 1.0 21 52
+ 1.06016 1 2 tcp 1040 ------- 0 1.0 3.1 41 72
r 1.0608 3 2 ack 40 ------- 0 3.1 1.0 26 61
+ 1.0608 2 1 ack 40 ------- 0 3.1 1.0 26 61
- 1.0608 2 1 ack 40 ------- 0 3.1 1.0 26 61
r 1.06352 1 2 tcp 1040 ------- 0 1.0 3.1 32 57
+ 1.06352 2 3 tcp 1040 ------- 0 1.0 3.1 32 57
- 1.06352 2 3 tcp 1040 ------- 0 1.0 3.1 32 57
- 1.06432 1 2 tcp 1040 ------- 0 1.0 3.1 38 66
r 1.06432 2 1 ack 40 ------- 0 3.1 1.0 22 53
+ 1.06432 1 2 tcp 1040 ------- 0 1.0 3.1 42 73
r 1.06496 3 2 ack 40 ------- 0 3.1 1.0 27 64
+ 1.06496 2 1 ack 40 ------- 0 3.1 1.0 27 64
- 1.06496 2 1 ack 40 ------- 0 3.1 1.0 27 64
r 1.06768 1 2 tcp 1040 ------- 0 1.0 3.1 33 59
+ 1.06768 2 3 tcp 1040 ------- 0 1.0 3.1 33 59
- 1.06768 2 3 tcp 1040 ------- 0 1.0 3.1 33 59
- 1.06848 1 2 tcp 1040 ------- 0 1.0 3.1 39 68
r 1.06848 2 1 ack 40 ------- 0 3.1 1.0 23 54
+ 1.06848 1 2 tcp 1040 ------- 0 1.0 3.1 43 74
r 1.06912 3 2 ack 40 ------- 0 3.1 1.0 28 67
+ 1.06912 2 1 ack 40 ------- 0 3.1 1.0 28 67
- 1.06912 2 1 ack 40 ------- 0 3.1 1.0 28 67
r 1.07184 1 2 tcp 1040 ------- 0 1.0 3.1 34 60
+ 1.07184 2 3 tcp 1040 ------- 0 1.0 3.1 34 60
- 1.07184 2 3 tcp 1040 ------- 0 1.0 3.1 34 60
- 1.07264 1 2 tcp 1040 ------- 0 1.0 3.1 40 70
r 1.07264 2 1 ack 40 ------- 0 3.1 1.0 24 55
+ 1.07264 1 2 tcp 1040 ------- 0 1.0 3.1 44 75
r 1.07328 3 2 ack 40 ------- 0 3.1 1.0 29 69
+ 1.07328 2 1 ack 40 ------- 0 3.1 1.0 29 69
- 1.07328 2 1 ack 40 ------- 0 3.1 1.0 29 69
r 1.076 1 2 tcp 1040 ------- 0 1.0 3.1 35 62
+ 1.076 2 3 tcp 1040 ------- 0 1.0 3.1 35 62
- 1.076 2 3 tcp 1040 ------- 0 1.0 3.1 35 62
- 1.0768 1 2 tcp 1040 ------- 0 1.0 3.1 41 72
r 1.0768 2 1 ack 40 ------- 0 3.1 1.0 25 58
+ 1.0768 1 2 tcp 1040 ------- 0 1.0 3.1 45 76
r 1.07744 3 2 ack 40 ------- 0 3.1 1.0 30 71
+ 1.07744 2 1 ack 40 ------- 0 3.1 1.0 30 71
- 1.07744 2 1 ack 40 ------- 0 3.1 1.0 30 71
r 1.08016 1 2 tcp 1040 ------- 0 1.0 3.1 36 63
+ 1.08016 2 3 tcp 1040 ------- 0 1.0 3.1 36 63
- 1.08016 2 3 tcp 1040 ------- 0 1.0 3.1 36 63
- 1.08096 1 2 tcp 1040 ------- 0 1.0 3.1 42 73
r 1.08096 2 1 ack 40 ------- 0 3.1 1.0 26 61
+ 1.08096 1 2 tcp 1040 ------- 0 1.0 3.1 46 77
r 1.08352 2 3 tcp 1040 ------- 0 1.0 3.1 31 56
+ 1.08352 3 2 ack 40 ------- 0 3.1 1.0 31 78
- 1.08352 3 2 ack 40 ------- 0 3.1 1.0 31 78
r 1.08432 1 2 tcp 1040 ------- 0 1.0 3.1 37 65
+ 1.08432 2 3 tcp 1040 ------- 0 1.0 3.1 37 65
- 1.08432 2 3 tcp 1040 ------- 0 1.0 3.1 37 65
- 1.08512 1 2 tcp 1040 ------- 0 1.0 3.1 43 74
r 1.08512 2 1 ack 40 ------- 0 3.1 1.0 27 64
+ 1.08512 1 2 tcp 1040 ------- 0 1.0 3.1 47 79
r 1.08768 2 3 tcp 1040 ------- 0 1.0 3.1 32 57
+ 1.08768 3 2 ack 40 ------- 0 3.1 1.0 32 80
- 1.08768 3 2 ack 40 ------- 0 3.1 1.0 32 80
r 1.08848 1 2 tcp 1040 ------- 0 1.0 3.1 38 66
+ 1.08848 2 3 tcp 1040 ------- 0 1.0 3.1 38 66
- 1.08848 2 3 tcp 1040 ------- 0 1.0 3.1 38 66
- 1.08928 1 2 tcp 1040 ------- 0 1.0 3.1 44 75
r 1.08928 2 1 ack 40 ------- 0 3.1 1.0 28 67
+ 1.08928 1 2 tcp 1040 ------- 0 1.0 3.1 48 81
r 1.09184 2 3 tcp 1040 ------- 0 1.0 3.1 33 59
+ 1.09184 3 2 ack 40 ------- 0 3.1 1.0 33 82
- 1.09184 3 2 ack 40 ------- 0 3.1 1.0 33 82
r 1.09264 1 2 tcp 1040 ------- 0 1.0 3.1 39 68
+ 1.09264 2 3 tcp 1040 ------- 0 1.0 3.1 39 68
- 1.09264 2 3 tcp 1040 ------- 0 1.0 3.1 39 68
- 1.09344 1 2 tcp 1040 ------- 0 1.0 3.1 45 76
r 1.09344 2 1 ack 40 ------- 0 3.1 1.0 29 69
+ 1.09344 1 2 tcp 1040 ------- 0 1.0 3.1 49 83
r 1.096 2 3 tcp 1040 ------- 0 1.0 3.1 34 60
+ 1.096 3 2 ack 40 ------- 0 3.1 1.0 34 84
- 1.096 3 2 ack 40 ------- 0 3.1 1.0 34 84
r 1.0968 1 2 tcp 1040 ------- 0 1.0 3.1 40 70
+ 1.0968 2 3 tcp 1040 ------- 0 1.0 3.1 40 70
- 1.0968 2 3 tcp 1040 ------- 0 1.0 3.1 40 70
- 1.0976 1 2 tcp 1040 ------- 0 1.0 3.1 46 77
r 1.0976 2 1 ack 40 ------- 0 3.1 1.0 30 71
+ 1.0976 1 2 tcp 1040 ------- 0 1.0 3.1 50 85
r 1.10016 2 3 tcp 1040 ------- 0 1.0 3.1 35 62
+ 1.10016 3 2 ack 40 ------- 0 3.1 1.0 35 86
- 1.10016 3 2 ack 40 ------- 0 3.1 1.0 35 86
r 1.10096 1 2 tcp 1040 ------- 0 1.0 3.1 41 72
+ 1.10096 2 3 tcp 1040 ------- 0 1.0 3.1 41 72
- 1.10096 2 3 tcp 1040 ------- 0 1.0 3.1 41 72
- 1.10176 1 2 tcp 1040 ------- 0 1.0 3.1 47 79
r 1.10368 3 2 ack 40 ------- 0 3.1 1.0 31 78
+ 1.10368 2 1 ack 40 ------- 0 3.1 1.0 31 78
- 1.10368 2 1 ack 40 ------- 0 3.1 1.0 31 78
r 1.10432 2 3 tcp 1040 ------- 0 1.0 3.1 36 63
+ 1.10432 3 2 ack 40 ------- 0 3.1 1.0 36 87
- 1.10432 3 2 ack 40 ------- 0 3.1 1.0 36 87
r 1.10512 1 2 tcp 1040 ------- 0 1.0 3.1 42 73
+ 1.10512 2 3 tcp 1040 ------- 0 1.0 3.1 42 73
- 1.10512 2 3 tcp 1040 ------- 0 1.0 3.1 42 73
- 1.10592 1 2 tcp 1040 ------- 0 1.0 3.1 48 81
r 1.10784 3 2 ack 40 ------- 0 3.1 1.0 32 80
+ 1.10784 2 1 ack 40 ------- 0 3.1 1.0 32 80
- 1.10784 2 1 ack 40 ------- 0 3.1 1.0 32 80
r 1.10848 2 3 tcp 1040 ------- 0 1.0 3.1 37 65
+ 1.10848 3 2 ack 40 ------- 0 3.1 1.0 37 88
- 1.10848 3 2 ack 40 ------- 0 3.1 1.0 37 88
r 1.10928 1 2 tcp 1040 ------- 0 1.0 3.1 43 74
+ 1.10928 2 3 tcp 1040 ------- 0 1.0 3.1 43 74
- 1.10928 2 3 tcp 1040 ------- 0 1.0 3.1 43 74
- 1.11008 1 2 tcp 1040 ------- 0 1.0 3.1 49 83
r 1.112 3 2 ack 40 ------- 0 3.1 1.0 33 82
+ 1.112 2 1 ack 40 ------- 0 3.1 1.0 33 82
- 1.112 2 1 ack 40 ------- 0 3.1 1.0 33 82
r 1.11264 2 3 tcp 1040 ------- 0 1.0 3.1 38 66
+ 1.11264 3 2 ack 40 ------- 0 3.1 1.0 38 89
- 1.11264 3 2 ack 40 ------- 0 3.1 1.0 38 89
r 1.11344 1 2 tcp 1040 ------- 0 1.0 3.1 44 75
+ 1.11344 2 3 tcp 1040 ------- 0 1.0 3.1 44 75
- 1.11344 2 3 tcp 1040 ------- 0 1.0 3.1 44 75
- 1.11424 1 2 tcp 1040 ------- 0 1.0 3.1 50 85
r 1.11616 3 2 ack 40 ------- 0 3.1 1.0 34 84
+ 1.11616 2 1 ack 40 ------- 0 3.1 1.0 34 84
- 1.11616 2 1 ack 40 ------- 0 3.1 1.0 34 84
r 1.1168 2 3 tcp 1040 ------- 0 1.0 3.1 39 68
+ 1.1168 3 2 ack 40 ------- 0 3.1 1.0 39 90
- 1.1168 3 2 ack 40 ------- 0 3.1 1.0 39 90
r 1.1176 1 2 tcp 1040 ------- 0 1.0 3.1 45 76
+ 1.1176 2 3 tcp 1040 ------- 0 1.0 3.1 45 76
- 1.1176 2 3 tcp 1040 ------- 0 1.0 3.1 45 76
r 1.12032 3 2 ack 40 ------- 0 3.1 1.0 35 86
+ 1.12032 2 1 ack 40 ------- 0 3.1 1.0 35 86
- 1.12032 2 1 ack 40 ------- 0 3.1 1.0 35 86
r 1.12096 2 3 tcp 1040 ------- 0 1.0 3.1 40 70
+ 1.12096 3 2 ack 40 ------- 0 3.1 1.0 40 91
- 1.12096 3 2 ack 40 ------- 0 3.1 1.0 40 91
r 1.12176 1 2 tcp 1040 ------- 0 1.0 3.1 46 77
+ 1.12176 2 3 tcp 1040 ------- 0 1.0 3.1 46 77
- 1.12176 2 3 tcp 1040 ------- 0 1.0 3.1 46 77
r 1.12384 2 1 ack 40 ------- 0 3.1 1.0 31 78
+ 1.12384 1 2 tcp 1040 ------- 0 1.0 3.1 51 92
- 1.12384 1 2 tcp 1040 ------- 0 1.0 3.1 51 92
r 1.12448 3 2 ack 40 ------- 0 3.1 1.0 36 87
+ 1.12448 2 1 ack 40 ------- 0 3.1 1.0 36 87
- 1.12448 2 1 ack 40 ------- 0 3.1 1.0 36 87
r 1.12512 2 3 tcp 1040 ------- 0 1.0 3.1 41 72
+ 1.12512 3 2 ack 40 ------- 0 3.1 1.0 41 93
- 1.12512 3 2 ack 40 ------- 0 3.1 1.0 41 93
r 1.12592 1 2 tcp 1040 ------- 0 1.0 3.1 47 79
+ 1.12592 2 3 tcp 1040 ------- 0 1.0 3.1 47 79
- 1.12592 2 3 tcp 1040 ------- 0 1.0 3.1 47 79
r 1.128 2 1 ack 40 ------- 0 3.1 1.0 32 80
+ 1.128 1 2 tcp 1040 ------- 0 1.0 3.1 52 94
- 1.128 1 2 tcp 1040 ------- 0 1.0 3.1 52 94
r 1.12864 3 2 ack 40 ------- 0 3.1 1.0 37 88
+ 1.12864 2 1 ack 40 ------- 0 3.1 1.0 37 88
- 1.12864 2 1 ack 40 ------- 0 3.1 1.0 37 88
r 1.12928 2 3 tcp 1040 ------- 0 1.0 3.1 42 73
+ 1.12928 3 2 ack 40 ------- 0 3.1 1.0 42 95
- 1.12928 3 2 ack 40 ------- 0 3.1 1.0 42 95
r 1.13008 1 2 tcp 1040 ------- 0 1.0 3.1 48 81
+ 1.13008 2 3 tcp 1040 ------- 0 1.0 3.1 48 81
- 1.13008 2 3 tcp 1040 ------- 0 1.0 3.1 48 81
r 1.13216 2 1 ack 40 ------- 0 3.1 1.0 33 82
+ 1.13216 1 2 tcp 1040 ------- 0 1.0 3.1 53 96
- 1.13216 1 2 tcp 1040 ------- 0 1.0 3.1 53 96
r 1.1328 3 2 ack 40 ------- 0 3.1 1.0 38 89
+ 1.1328 2 1 ack 40 ------- 0 3.1 1.0 38 89
- 1.1328 2 1 ack 40 ------- 0 3.1 1.0 38 89
r 1.13344 2 3 tcp 1040 ------- 0 1.0 3.1 43 74
+ 1.13344 3 2 ack 40 ------- 0 3.1 1.0 43 97
- 1.13344 3 2 ack 40 ------- 0 3.1 1.0 43 97
r 1.13424 1 2 tcp 1040 ------- 0 1.0 3.1 49 83
+ 1.13424 2 3 tcp 1040 ------- 0 1.0 3.1 49 83
- 1.13424 2 3 tcp 1040 ------- 0 1.0 3.1 49 83
r 1.13632 2 1 ack 40 ------- 0 3.1 1.0 34 84
+ 1.13632 1 2 tcp 1040 ------- 0 1.0 3.1 54 98
- 1.13632 1 2 tcp 1040 ------- 0 1.0 3.1 54 98
r 1.13696 3 2 ack 40 ------- 0 3.1 1.0 39 90
+ 1.13696 2 1 ack 40 ------- 0 3.1 1.0 39 90
- 1.13696 2 1 ack 40 ------- 0 3.1 1.0 39 90
r 1.1376 2 3 tcp 1040 ------- 0 1.0 3.1 44 75
+ 1.1376 3 2 ack 40 ------- 0 3.1 1.0 44 99
- 1.1376 3 2 ack 40 ------- 0 3.1 1.0 44 99
r 1.1384 1 2 tcp 1040 ------- 0 1.0 3.1 50 85
+ 1.1384 2 3 tcp 1040 ------- 0 1.0 3.1 50 85
- 1.1384 2 3 tcp 1040 ------- 0 1.0 3.1 50 85
r 1.14048 2 1 ack 40 ------- 0 3.1 1.0 35 86
+ 1.14048 1 2 tcp 1040 ------- 0 1.0 3.1 55 100
- 1.14048 1 2 tcp 1040 ------- 0 1.0 3.1 55 100
r 1.14112 3 2 ack 40 ------- 0 3.1 1.0 40 91
+ 1.14112 2 1 ack 40 ------- 0 3.1 1.0 40 91
- 1.14112 2 1 ack 40 ------- 0 3.1 1.0 40 91
r 1.14176 2 3 tcp 1040 ------- 0 1.0 3.1 45 76
+ 1.14176 3 2 ack 40 ------- 0 3.1 1.0 45 101
- 1.14176 3 2 ack 40 ------- 0 3.1 1.0 45 101
r 1.14464 2 1 ack 40 ------- 0 3.1 1.0 36 87
+ 1.14464 1 2 tcp 1040 ------- 0 1.0 3.1 56 102
- 1.14464 1 2 tcp 1040 ------- 0 1.0 3.1 56 102
r 1.14528 3 2 ack 40 ------- 0 3.1 1.0 41 93
+ 1.14528 2 1 ack 40 ------- 0 3.1 1.0 41 93
- 1.14528 2 1 ack 40 ------- 0 3.1 1.0 41 93
r 1.14592 2 3 tcp 1040 ------- 0 1.0 3.1 46 77
+ 1.14592 3 2 ack 40 ------- 0 3.1 1.0 46 103
- 1.14592 3 2 ack 40 ------- 0 3.1 1.0 46 103
r 1.148 1 2 tcp 1040 ------- 0 1.0 3.1 51 92
+ 1.148 2 3 tcp 1040 ------- 0 1.0 3.1 51 92
- 1.148 2 3 tcp 1040 ------- 0 1.0 3.1 51 92
r 1.1488 2 1 ack 40 ------- 0 3.1 1.0 37 88
+ 1.1488 1 2 tcp 1040 ------- 0 1.0 3.1 57 104
- 1.1488 1 2 tcp 1040 ------- 0 1.0 3.1 57 104
r 1.14944 3 2 ack 40 ------- 0 3.1 1.0 42 95
+ 1.14944 2 1 ack 40 ------- 0 3.1 1.0 42 95
- 1.14944 2 1 ack 40 ------- 0 3.1 1.0 42 95
r 1.15008 2 3 tcp 1040 ------- 0 1.0 3.1 47 79
+ 1.15008 3 2 ack 40 ------- 0 3.1 1.0 47 105
- 1.15008 3 2 ack 40 ------- 0 3.1 1.0 47 105
r 1.15216 1 2 tcp 1040 ------- 0 1.0 3.1 52 94
+ 1.15216 2 3 tcp 1040 ------- 0 1.0 3.1 52 94
- 1.15216 2 3 tcp 1040 ------- 0 1.0 3.1 52 94
r 1.15296 2 1 ack 40 ------- 0 3.1 1.0 38 89
+ 1.15296 1 2 tcp 1040 ------- 0 1.0 3.1 58 106
- 1.15296 1 2 tcp 1040 ------- 0 1.0 3.1 58 106
r 1.1536 3 2 ack 40 ------- 0 3.1 1.0 43 97
+ 1.1536 2 1 ack 40 ------- 0 3.1 1.0 43 97
- 1.1536 2 1 ack 40 ------- 0 3.1 1.0 43 97
r 1.15424 2 3 tcp 1040 ------- 0 1.0 3.1 48 81
+ 1.15424 3 2 ack 40 ------- 0 3.1 1.0 48 107
- 1.15424 3 2 ack 40 ------- 0 3.1 1.0 48 107
r 1.15632 1 2 tcp 1040 ------- 0 1.0 3.1 53 96
+ 1.15632 2 3 tcp 1040 ------- 0 1.0 3.1 53 96
- 1.15632 2 3 tcp 1040 ------- 0 1.0 3.1 53 96
r 1.15712 2 1 ack 40 ------- 0 3.1 1.0 39 90
+ 1.15712 1 2 tcp 1040 ------- 0 1.0 3.1 59 108
- 1.15712 1 2 tcp 1040 ------- 0 1.0 3.1 59 108
r 1.15776 3 2 ack 40 ------- 0 3.1 1.0 44 99
+ 1.15776 2 1 ack 40 ------- 0 3.1 1.0 44 99
- 1.15776 2 1 ack 40 ------- 0 3.1 1.0 44 99
r 1.1584 2 3 tcp 1040 ------- 0 1.0 3.1 49 83
+ 1.1584 3 2 ack 40 ------- 0 3.1 1.0 49 109
- 1.1584 3 2 ack 40 ------- 0 3.1 1.0 49 109
r 1.16048 1 2 tcp 1040 ------- 0 1.0 3.1 54 98
+ 1.16048 2 3 tcp 1040 ------- 0 1.0 3.1 54 98
- 1.16048 2 3 tcp 1040 ------- 0 1.0 3.1 54 98
r 1.16128 2 1 ack 40 ------- 0 3.1 1.0 40 91
+ 1.16128 1 2 tcp 1040 ------- 0 1.0 3.1 60 110
- 1.16128 1 2 tcp 1040 ------- 0 1.0 3.1 60 110
r 1.16192 3 2 ack 40 ------- 0 3.1 1.0 45 101
+ 1.16192 2 1 ack 40 ------- 0 3.1 1.0 45 101
- 1.16192 2 1 ack 40 ------- 0 3.1 1.0 45 101
r 1.16256 2 3 tcp 1040 ------- 0 1.0 3.1 50 85
+ 1.16256 3 2 ack 40 ------- 0 3.1 1.0 50 111
- 1.16256 3 2 ack 40 ------- 0 3.1 1.0 50 111
r 1.16464 1 2 tcp 1040 ------- 0 1.0 3.1 55 100
+ 1.16464 2 3 tcp 1040 ------- 0 1.0 3.1 55 100
- 1.16464 2 3 tcp 1040 ------- 0 1.0 3.1 55 100
r 1.16544 2 1 ack 40 ------- 0 3.1 1.0 41 93
+ 1.16544 1 2 tcp 1040 ------- 0 1.0 3.1 61 112
- 1.16544 1 2 tcp 1040 ------- 0 1.0 3.1 61 112
r 1.16608 3 2 ack 40 ------- 0 3.1 1.0 46 103
+ 1.16608 2 1 ack 40 ------- 0 3.1 1.0 46 103
- 1.16608 2 1 ack 40 ------- 0 3.1 1.0 46 103
r 1.1688 1 2 tcp 1040 ------- 0 1.0 3.1 56 102
+ 1.1688 2 3 tcp 1040 ------- 0 1.0 3.1 56 102
- 1.1688 2 3 tcp 1040 ------- 0 1.0 3.1 56 102
r 1.1696 2 1 ack 40 ------- 0 3.1 1.0 42 95
+ 1.1696 1 2 tcp 1040 ------- 0 1.0 3.1 62 113
- 1.1696 1 2 tcp 1040 ------- 0 1.0 3.1 62 113
r 1.17024 3 2 ack 40 ------- 0 3.1 1.0 47 105
+ 1.17024 2 1 ack 40 ------- 0 3.1 1.0 47 105
- 1.17024 2 1 ack 40 ------- 0 3.1 1.0 47 105
r 1.17216 2 3 tcp 1040 ------- 0 1.0 3.1 51 92
+ 1.17216 3 2 ack 40 ------- 0 3.1 1.0 51 114
- 1.17216 3 2 ack 40 ------- 0 3.1 1.0 51 114
r 1.17296 1 2 tcp 1040 ------- 0 1.0 3.1 57 104
+ 1.17296 2 3 tcp 1040 ------- 0 1.0 3.1 57 104
- 1.17296 2 3 tcp 1040 ------- 0 1.0 3.1 57 104
r 1.17376 2 1 ack 40 ------- 0 3.1 1.0 43 97
+ 1.17376 1 2 tcp 1040 ------- 0 1.0 3.1 63 115
- 1.17376 1 2 tcp 1040 ------- 0 1.0 3.1 63 115
r 1.1744 3 2 ack 40 ------- 0 3.1 1.0 48 107
+ 1.1744 2 1 ack 40 ------- 0 3.1 1.0 48 107
- 1.1744 2 1 ack 40 ------- 0 3.1 1.0 48 107
r 1.17632 2 3 tcp 1040 ------- 0 1.0 3.1 52 94
+ 1.17632 3 2 ack 40 ------- 0 3.1 1.0 52 116
- 1.17632 3 2 ack 40 ------- 0 3.1 1.0 52 116
r 1.17712 1 2 tcp 1040 ------- 0 1.0 3.1 58 106
+ 1.17712 2 3 tcp 1040 ------- 0 1.0 3.1 58 106
- 1.17712 2 3 tcp 1040 ------- 0 1.0 3.1 58 106
r 1.17792 2 1 ack 40 ------- 0 3.1 1.0 44 99
+ 1.17792 1 2 tcp 1040 ------- 0 1.0 3.1 64 117