V -t * -v 1.0a5 -a 0
A -t * -n 1 -p 0 -o 0x7fffffff -c 30 -a 1
A -t * -h 1 -m 1073741823 -s 0
n -t * -a 0 -s 0 -S UP -v circle -c black -i black
n -t * -a 1 -s 1 -S UP -v circle -c black -i black
n -t * -a 2 -s 2 -S UP -v circle -c black -i black
n -t * -a 3 -s 3 -S UP -v circle -c black -i black
l -t * -s 0 -d 2 -S UP -r 2000000 -D 0.02 -c black
l -t * -s 1 -d 2 -S UP -r 2000000 -D 0.02 -c black
l -t * -s 2 -d 3 -S UP -r 2000000 -D 0.02 -c black
+ -t 0.6 -s 1 -d 2 -p tcp -e 40 -c 0 -i 0 -a 0 -x {1.0 3.1 0 ------- null}
- -t 0.6 -s 1 -d 2 -p tcp -e 40 -c 0 -i 0 -a 0 -x {1.0 3.1 0 ------- null}
h -t 0.6 -s 1 -d 2 -p tcp -e 40 -c 0 -i 0 -a 0 -x {1.0 3.1 -1 ------- null}
r -t 0.62016 -s 1 -d 2 -p tcp -e 40 -c 0 -i 0 -a 0 -x {1.0 3.1 0 ------- null}
+ -t 0.62016 -s 2 -d 3 -p tcp -e 40 -c 0 -i 0 -a 0 -x {1.0 3.1 0 ------- null}
- -t 0.62016 -s 2 -d 3 -p tcp -e 40 -c 0 -i 0 -a 0 -x {1.0 3.1 0 ------- null}
h -t 0.62016 -s 2 -d 3 -p tcp -e 40 -c 0 -i 0 -a 0 -x {1.0 3.1 -1 ------- null}
r -t 0.64032 -s 2 -d 3 -p tcp -e 40 -c 0 -i 0 -a 0 -x {1.0 3.1 0 ------- null}
+ -t 0.64032 -s 3 -d 2 -p ack -e 40 -c 0 -i 1 -a 0 -x {3.1 1.0 0 ------- null}
- -t 0.64032 -s 3 -d 2 -p ack -e 40 -c 0 -i 1 -a 0 -x {3.1 1.0 0 ------- null}
h -t 0.64032 -s 3 -d 2 -p ack -e 40 -c 0 -i 1 -a 0 -x {3.1 1.0 -1 ------- null}
r -t 0.66048 -s 3 -d 2 -p ack -e 40 -c 0 -i 1 -a 0 -x {3.1 1.0 0 ------- null}
+ -t 0.66048 -s 2 -d 1 -p ack -e 40 -c 0 -i 1 -a 0 -x {3.1 1.0 0 ------- null}
- -t 0.66048 -s 2 -d 1 -p ack -e 40 -c 0 -i 1 -a 0 -x {3.1 1.0 0 ------- null}
h -t 0.66048 -s 2 -d 1 -p ack -e 40 -c 0 -i 1 -a 0 -x {3.1 1.0 -1 ------- null}
r -t 0.68064 -s 2 -d 1 -p ack -e 40 -c 0 -i 1 -a 0 -x {3.1 1.0 0 ------- null}
+ -t 0.68064 -s 1 -d 2 -p tcp -e 1040 -c 0 -i 2 -a 0 -x {1.0 3.1 1 ------- null}
- -t 0.68064 -s 1 -d 2 -p tcp -e 1040 -c 0 -i 2 -a 0 -x {1.0 3.1 1 ------- null}
h -t 0.68064 -s 1 -d 2 -p tcp -e 1040 -c 0 -i 2 -a 0 -x {1.0 3.1 -1 ------- null}
+ -t 0.68064 -s 1 -d 2 -p tcp -e 1040 -c 0 -i 3 -a 0 -x {1.0 3.1 2 ------- null}
- -t 0.6848 -s 1 -d 2 -p tcp -e 1040 -c 0 -i 3 -a 0 -x {1.0 3.1 2 ------- null}
h -t 0.6848 -s 1 -d 2 -p tcp -e 1040 -c 0 -i 3 -a 0 -x {1.0 3.1 -1 ------- null}
r -t 0.7048 -s 1 -d 2 -p tcp -e 1040 -c 0 -i 2 -a 0 -x {1.0 3.1 1 ------- null}
+ -t 0.7048 -s 2 -d 3 -p tcp -e 1040 -c 0 -i 2 -a 0 -x {1.0 3.1 1 ------- null}
- -t 0.7048 -s 2 -d 3 -p tcp -e 1040 -c 0 -i 2 -a 0 -x {1.0 3.1 1 ------- null}
h -t 0.7048 -s 2 -d 3 -p tcp -e 1040 -c 0 -i 2 -a 0 -x {1.0 3.1 -1 ------- null}
r -t 0.70896 -s 1 -d 2 -p tcp -e 1040 -c 0 -i 3 -a 0 -x {1.0 3.1 2 ------- null}
+ -t 0.70896 -s 2 -d 3 -p tcp -e 1040 -c 0 -i 3 -a 0 -x {1.0 3.1 2 ------- null}
- -t 0.70896 -s 2 -d 3 -p tcp -e 1040 -c 0 -i 3 -a 0 -x {1.0 3.1 2 ------- null}
h -t 0.70896 -s 2 -d 3 -p tcp -e 1040 -c 0 -i 3 -a 0 -x {1.0 3.1 -1 ------- null}
r -t 0.72896 -s 2 -d 3 -p tcp -e 1040 -c 0 -i 2 -a 0 -x {1.0 3.1 1 ------- null}
+ -t 0.72896 -s 3 -d 2 -p ack -e 40 -c 0 -i 4 -a 0 -x {3.1 1.0 1 ------- null}
- -t 0.72896 -s 3 -d 2 -p ack -e 40 -c 0 -i 4 -a 0 -x {3.1 1.0 1 ------- null}
h -t 0.72896 -s 3 -d 2 -p ack -e 40 -c 0 -i 4 -a 0 -x {3.1 1.0 -1 ------- null}
r -t 0.73312 -s 2 -d 3 -p tcp -e 1040 -c 0 -i 3 -a 0 -x {1.0 3.1 2 ------- null}
+ -t 0.73312 -s 3 -d 2 -p ack -e 40 -c 0 -i 5 -a 0 -x {3.1 1.0 2 ------- null}
- -t 0.73312 -s 3 -d 2 -p ack -e 40 -c 0 -i 5 -a 0 -x {3.1 1.0 2 ------- null}
h -t 0.73312 -s 3 -d 2 -p ack -e 40 -c 0 -i 5 -a 0 -x {3.1 1.0 -1 ------- null}
r -t 0.74912 -s 3 -d 2 -p ack -e 40 -c 0 -i 4 -a 0 -x {3.1 1.0 1 ------- null}
+ -t 0.74912 -s 2 -d 1 -p ack -e 40 -c 0 -i 4 -a 0 -x {3.1 1.0 1 ------- null}
- -t 0.74912 -s 2 -d 1 -p ack -e 40 -c 0 -i 4 -a 0 -x {3.1 1.0 1 ------- null}
h -t 0.74912 -s 2 -d 1 -p ack -e 40 -c 0 -i 4 -a 0 -x {3.1 1.0 -1 ------- null}
r -t 0.75328 -s 3 -d 2 -p ack -e 40 -c 0 -i 5 -a 0 -x {3.1 1.0 2 ------- null}
+ -t 0.75328 -s 2 -d 1 -p ack -e 40 -c 0 -i 5 -a 0 -x {3.1 1.0 2 ------- null}
- -t 0.75328 -s 2 -d 1 -p ack -e 40 -c 0 -i 5 -a 0 -x {3.1 1.0 2 ------- null}
h -t 0.75328 -s 2 -d 1 -p ack -e 40 -c 0 -i 5 -a 0 -x {3.1 1.0 -1 ------- null}
r -t 0.76928 -s 2 -d 1 -p ack -e 40 -c 0 -i 4 -a 0 -x {3.1 1.0 1 ------- null}
+ -t 0.76928 -s 1 -d 2 -p tcp -e 1040 -c 0 -i 6 -a 0 -x {1.0 3.1 3 ------- null}
- -t 0.76928 -s 1 -d 2 -p tcp -e 1040 -c 0 -i 6 -a 0 -x {1.0 3.1 3 ------- null}
h -t 0.76928 -s 1 -d 2 -p tcp -e 1040 -c 0 -i 6 -a 0 -x {1.0 3.1 -1 ------- null}
+ -t 0.76928 -s 1 -d 2 -p tcp -e 1040 -c 0 -i 7 -a 0 -x {1.0 3.1 4 ------- null}
r -t 0.77344 -s 2 -d 1 -p ack -e 40 -c 0 -i 5 -a 0 -x {3.1 1.0 2 ------- null}
+ -t 0.77344 -s 1 -d 2 -p tcp -e 1040 -c 0 -i 8 -a 0 -x {1.0 3.1 5 ------- null}
+ -t 0.77344 -s 1 -d 2 -p tcp -e 1040 -c 0 -i 9 -a 0 -x {1.0 3.1 6 ------- null}
- -t 0.77344 -s 1 -d 2 -p tcp -e 1040 -c 0 -i 7 -a 0 -x {1.0 3.1 4 ------- null}
h -t 0.77344 -s 1 -d 2 -p tcp -e 1040 -c 0 -i 7 -a 0 -x {1.0 3.1 -1 ------- null}
- -t 0.7776 -s 1 -d 2 -p tcp -e 1040 -c 0 -i 8 -a 0 -x {1.0 3.1 5 ------- null}
h -t 0.7776 -s 1 -d 2 -p tcp -e 1040 -c 0 -i 8 -a 0 -x {1.0 3.1 -1 ------- null}
- -t 0.78176 -s 1 -d 2 -p tcp -e 1040 -c 0 -i 9 -a 0 -x {1.0 3.1 6 ------- null}
h -t 0.78176 -s 1 -d 2 -p tcp -e 1040 -c 0 -i 9 -a 0 -x {1.0 3.1 -1 ------- null}
r -t 0.79344 -s 1 -d 2 -p tcp -e 1040 -c 0 -i 6 -a 0 -x {1.0 3.1 3 ------- null}
+ -t 0.79344 -s 2 -d 3 -p tcp -e 1040 -c 0 -i 6 -a 0 -x {1.0 3.1 3 ------- null}
- -t 0.79344 -s 2 -d 3 -p tcp -e 1040 -c 0 -i 6 -a 0 -x {1.0 3.1 3 ------- null}
h -t 0.79344 -s 2 -d 3 -p tcp -e 1040 -c 0 -i 6 -a 0 -x {1.0 3.1 -1 ------- null}
r -t 0.7976 -s 1 -d 2 -p tcp -e 1040 -c 0 -i 7 -a 0 -x {1.0 3.1 4 ------- null}
+ -t 0.7976 -s 2 -d 3 -p tcp -e 1040 -c 0 -i 7 -a 0 -x {1.0 3.1 4 ------- null}
- -t 0.7976 -s 2 -d 3 -p tcp -e 1040 -c 0 -i 7 -a 0 -x {1.0 3.1 4 ------- null}
h -t 0.7976 -s 2 -d 3 -p tcp -e 1040 -c 0 -i 7 -a 0 -x {1.0 3.1 -1 ------- null}
r -t 0.80176 -s 1 -d 2 -p tcp -e 1040 -c 0 -i 8 -a 0 -x {1.0 3.1 5 ------- null}
+ -t 0.80176 -s 2 -d 3 -p tcp -e 1040 -c 0 -i 8 -a 0 -x {1.0 3.1 5 ------- null}
- -t 0.80176 -s 2 -d 3 -p tcp -e 1040 -c 0 -i 8 -a 0 -x {1.0 3.1 5 ------- null}
h -t 0.80176 -s 2 -d 3 -p tcp -e 1040 -c 0 -i 8 -a 0 -x {1.0 3.1 -1 ------- null}
r -t 0.80592 -s 1 -d 2 -p tcp -e 1040 -c 0 -i 9 -a 0 -x {1.0 3.1 6 ------- null}
+ -t 0.80592 -s 2 -d 3 -p tcp -e 1040 -c 0 -i 9 -a 0 -x {1.0 3.1 6 ------- null}
- -t 0.80592 -s 2 -d 3 -p tcp -e 1040 -c 0 -i 9 -a 0 -x {1.0 3.1 6 ------- null}
h -t 0.80592 -s 2 -d 3 -p tcp -e 1040 -c 0 -i 9 -a 0 -x {1.0 3.1 -1 ------- null}
r -t 0.8176 -s 2 -d 3 -p tcp -e 1040 -c 0 -i 6 -a 0 -x {1.0 3.1 3 ------- null}
+ -t 0.8176 -s 3 -d 2 -p ack -e 40 -c 0 -i 10 -a 0 -x {3.1 1.0 3 ------- null}
- -t 0.8176 -s 3 -d 2 -p ack -e 40 -c 0 -i 10 -a 0 -x {3.1 1.0 3 ------- null}
h -t 0.8176 -s 3 -d 2 -p ack -e 40 -c 0 -i 10 -a 0 -x {3.1 1.0 -1 ------- null}
r -t 0.82176 -s 2 -d 3 -p tcp -e 1040 -c 0 -i 7 -a 0 -x {1.0 3.1 4 ------- null}
+ -t 0.82176 -s 3 -d 2 -p ack -e 40 -c 0 -i 11 -a 0 -x {3.1 1.0 4 ------- null}
- -t 0.82176 -s 3 -d 2 -p ack -e 40 -c 0 -i 11 -a 0 -x {3.1 1.0 4 ------- null}
h -t 0.82176 -s 3 -d 2 -p ack -e 40 -c 0 -i 11 -a 0 -x {3.1 1.0 -1 ------- null}
r -t 0.82592 -s 2 -d 3 -p tcp -e 1040 -c 0 -i 8 -a 0 -x {1.0 3.1 5 ------- null}
+ -t 0.82592 -s 3 -d 2 -p ack -e 40 -c 0 -i 12 -a 0 -x {3.1 1.0 5 ------- null}
- -t 0.82592 -s 3 -d 2 -p ack -e 40 -c 0 -i 12 -a 0 -x {3.1 1.0 5 ------- null}
h -t 0.82592 -s 3 -d 2 -p ack -e 40 -c 0 -i 12 -a 0 -x {3.1 1.0 -1 ------- null}
r -t 0.83008 -s 2 -d 3 -p tcp -e 1040 -c 0 -i 9 -a 0 -x {1.0 3.1 6 ------- null}
+ -t 0.83008 -s 3 -d 2 -p ack -e 40 -c 0 -i 13 -a 0 -x {3.1 1.0 6 ------- null}
- -t 0.83008 -s 3 -d 2 -p ack -e 40 -c 0 -i 13 -a 0 -x {3.1 1.0 6 ------- null}
h -t 0.83008 -s 3 -d 2 -p ack -e 40 -c 0 -i 13 -a 0 -x {3.1 1.0 -1 ------- null}
r -t 0.83776 -s 3 -d 2 -p ack -e 40 -c 0 -i 10 -a 0 -x {3.1 1.0 3 ------- null}
+ -t 0.83776 -s 2 -d 1 -p ack -e 40 -c 0 -i 10 -a 0 -x {3.1 1.0 3 ------- null}
- -t 0.83776 -s 2 -d 1 -p ack -e 40 -c 0 -i 10 -a 0 -x {3.1 1.0 3 ------- null}
h -t 0.83776 -s 2 -d 1 -p ack -e 40 -c 0 -i 10 -a 0 -x {3.1 1.0 -1 ------- null}
r -t 0.84192 -s 3 -d 2 -p ack -e 40 -c 0 -i 11 -a 0 -x {3.1 1.0 4 ------- null}
+ -t 0.84192 -s 2 -d 1 -p ack -e 40 -c 0 -i 11 -a 0 -x {3.1 1.0 4 ------- null}
- -t 0.84192 -s 2 -d 1 -p ack -e 40 -c 0 -i 11 -a 0 -x {3.1 1.0 4 ------- null}
h -t 0.84192 -s 2 -d 1 -p ack -e 40 -c 0 -i 11 -a 0 -x {3.1 1.0 -1 ------- null}
r -t 0.84608 -s 3 -d 2 -p ack -e 40 -c 0 -i 12 -a 0 -x {3.1 1.0 5 ------- null}
+ -t 0.84608 -s 2 -d 1 -p ack -e 40 -c 0 -i 12 -a 0 -x {3.1 1.0 5 ------- null}
- -t 0.84608 -s 2 -d 1 -p ack -e 40 -c 0 -i 12 -a 0 -x {3.1 1.0 5 ------- null}
h -t 0.84608 -s 2 -d 1 -p ack -e 40 -c 0 -i 12 -a 0 -x {3.1 1.0 -1 ------- null}
r -t 0.85024 -s 3 -d 2 -p ack -e 40 -c 0 -i 13 -a 0 -x {3.1 1.0 6 ------- null}
+ -t 0.85024 -s 2 -d 1 -p ack -e 40 -c 0 -i 13 -a 0 -x {3.1 1.0 6 ------- null}
- -t 0.85024 -s 2 -d 1 -p ack -e 40 -c 0 -i 13 -a 0 -x {3.1 1.0 6 ------- null}
h -t 0.85024 -s 2 -d 1 -p ack -e 40 -c 0 -i 13 -a 0 -x {3.1 1.0 -1 ------- null}
r -t 0.857919999999999 -s 2 -d 1 -p ack -e 40 -c 0 -i 10 -a 0 -x {3.1 1.0 3 ------- null}
+ -t 0.857919999999999 -s 1 -d 2 -p tcp -e 1040 -c 0 -i 14 -a 0 -x {1.0 3.1 7 ------- null}
- -t 0.857919999999999 -s 1 -d 2 -p tcp -e 1040 -c 0 -i 14 -a 0 -x {1.0 3.1 7 ------- null}
h -t 0.857919999999999 -s 1 -d 2 -p tcp -e 1040 -c 0 -i 14 -a 0 -x {1.0 3.1 -1 ------- null}
+ -t 0.857919999999999 -s 1 -d 2 -p tcp -e 1040 -c 0 -i 15 -a 0 -x {1.0 3.1 8 ------- null}
r -t 0.86208 -s 2 -d 1 -p ack -e 40 -c 0 -i 11 -a 0 -x {3.1 1.0 4 ------- null}
+ -t 0.86208 -s 1 -d 2 -p tcp -e 1040 -c 0 -i 16 -a 0 -x {1.0 3.1 9 ------- null}
+ -t 0.86208 -s 1 -d 2 -p tcp -e 1040 -c 0 -i 17 -a 0 -x {1.0 3.1 10 ------- null}
- -t 0.86208 -s 1 -d 2 -p tcp -e 1040 -c 0 -i 15 -a 0 -x {1.0 3.1 8 ------- null}
h -t 0.86208 -s 1 -d 2 -p tcp -e 1040 -c 0 -i 15 -a 0 -x {1.0 3.1 -1 ------- null}
r -t 0.86624 -s 2 -d 1 -p ack -e 40 -c 0 -i 12 -a 0 -x {3.1 1.0 5 ------- null}
+ -t 0.86624 -s 1 -d 2 -p tcp -e 1040 -c 0 -i 18 -a 0 -x {1.0 3.1 11 ------- null}
+ -t 0.86624 -s 1 -d 2 -p tcp -e 1040 -c 0 -i 19 -a 0 -x {1.0 3.1 12 ------- null}
- -t 0.86624 -s 1 -d 2 -p tcp -e 1040 -c 0 -i 16 -a 0 -x {1.0 3.1 9 ------- null}
h -t 0.86624 -s 1 -d 2 -p tcp -e 1040 -c 0 -i 16 -a 0 -x {1.0 3.1 -1 ------- null}
r -t 0.8704 -s 2 -d 1 -p ack -e 40 -c 0 -i 13 -a 0 -x {3.1 1.0 6 ------- null}
+ -t 0.8704 -s 1 -d 2 -p tcp -e 1040 -c 0 -i 20 -a 0 -x {1.0 3.1 13 ------- null}
+ -t 0.8704 -s 1 -d 2 -p tcp -e 1040 -c 0 -i 21 -a 0 -x {1.0 3.1 14 ------- null}
- -t 0.8704 -s 1 -d 2 -p tcp -e 1040 -c 0 -i 17 -a 0 -x {1.0 3.1 10 ------- null}
h -t 0.8704 -s 1 -d 2 -p tcp -e 1040 -c 0 -i 17 -a 0 -x {1.0 3.1 -1 ------- null}
- -t 0.87456 -s 1 -d 2 -p tcp -e 1040 -c 0 -i 18 -a 0 -x {1.0 3.1 11 ------- null}
h -t 0.87456 -s 1 -d 2 -p tcp -e 1040 -c 0 -i 18 -a 0 -x {1.0 3.1 -1 ------- null}
- -t 0.87872 -s 1 -d 2 -p tcp -e 1040 -c 0 -i 19 -a 0 -x {1.0 3.1 12 ------- null}
h -t 0.87872 -s 1 -d 2 -p tcp -e 1040 -c 0 -i 19 -a 0 -x {1.0 3.1 -1 ------- null}
r -t 0.882079999999999 -s 1 -d 2 -p tcp -e 1040 -c 0 -i 14 -a 0 -x {1.0 3.1 7 ------- null}
+ -t 0.882079999999999 -s 2 -d 3 -p tcp -e 1040 -c 0 -i 14 -a 0 -x {1.0 3.1 7 ------- null}
- -t 0.882079999999999 -s 2 -d 3 -p tcp -e 1040 -c 0 -i 14 -a 0 -x {1.0 3.1 7 ------- null}
h -t 0.882079999999999 -s 2 -d 3 -p tcp -e 1040 -c 0 -i 14 -a 0 -x {1.0 3.1 -1 ------- null}
- -t 0.88288 -s 1 -d 2 -p tcp -e 1040 -c 0 -i 20 -a 0 -x {1.0 3.1 13 ------- null}
h -t 0.88288 -s 1 -d 2 -p tcp -e 1040 -c 0 -i 20 -a 0 -x {1.0 3.1 -1 ------- null}
r -t 0.886239999999999 -s 1 -d 2 -p tcp -e 1040 -c 0 -i 15 -a 0 -x {1.0 3.1 8 ------- null}
+ -t 0.886239999999999 -s 2 -d 3 -p tcp -e 1040 -c 0 -i 15 -a 0 -x {1.0 3.1 8 ------- null}
- -t 0.886239999999999 -s 2 -d 3 -p tcp -e 1040 -c 0 -i 15 -a 0 -x {1.0 3.1 8 ------- null}
h -t 0.886239999999999 -s 2 -d 3 -p tcp -e 1040 -c 0 -i 15 -a 0 -x {1.0 3.1 -1 ------- null}
- -t 0.88704 -s 1 -d 2 -p tcp -e 1040 -c 0 -i 21 -a 0 -x {1.0 3.1 14 ------- null}
h -t 0.88704 -s 1 -d 2 -p tcp -e 1040 -c 0 -i 21 -a 0 -x {1.0 3.1 -1 ------- null}
r -t 0.8904 -s 1 -d 2 -p tcp -e 1040 -c 0 -i 16 -a 0 -x {1.0 3.1 9 ------- null}
+ -t 0.8904 -s 2 -d 3 -p tcp -e 1040 -c 0 -i 16 -a 0 -x {1.0 3.1 9 ------- null}
- -t 0.8904 -s 2 -d 3 -p tcp -e 1040 -c 0 -i 16 -a 0 -x {1.0 3.1 9 ------- null}
h -t 0.8904 -s 2 -d 3 -p tcp -e 1040 -c 0 -i 16 -a 0 -x {1.0 3.1 -1 ------- null}
r -t 0.89456 -s 1 -d 2 -p tcp -e 1040 -c 0 -i 17 -a 0 -x {1.0 3.1 10 ------- null}
+ -t 0.89456 -s 2 -d 3 -p tcp -e 1040 -c 0 -i 17 -a 0 -x {1.0 3.1 10 ------- null}
- -t 0.89456 -s 2 -d 3 -p tcp -e 1040 -c 0 -i 17 -a 0 -x {1.0 3.1 10 ------- null}
h -t 0.89456 -s 2 -d 3 -p tcp -e 1040 -c 0 -i 17 -a 0 -x {1.0 3.1 -1 ------- null}
r -t 0.89872 -s 1 -d 2 -p tcp -e 1040 -c 0 -i 18 -a 0 -x {1.0 3.1 11 ------- null}
+ -t 0.89872 -s 2 -d 3 -p tcp -e 1040 -c 0 -i 18 -a 0 -x {1.0 3.1 11 ------- null}
- -t 0.89872 -s 2 -d 3 -p tcp -e 1040 -c 0 -i 18 -a 0 -x {1.0 3.1 11 ------- null}
h -t 0.89872 -s 2 -d 3 -p tcp -e 1040 -c 0 -i 18 -a 0 -x {1.0 3.1 -1 ------- null}
r -t 0.90288 -s 1 -d 2 -p tcp -e 1040 -c 0 -i 19 -a 0 -x {1.0 3.1 12 ------- null}
+ -t 0.90288 -s 2 -d 3 -p tcp -e 1040 -c 0 -i 19 -a 0 -x {1.0 3.1 12 ------- null}
- -t 0.90288 -s 2 -d 3 -p tcp -e 1040 -c 0 -i 19 -a 0 -x {1.0 3.1 12 ------- null}
h -t 0.90288 -s 2 -d 3 -p tcp -e 1040 -c 0 -i 19 -a 0 -x {1.0 3.1 -1 ------- null}
r -t 0.906239999999999 -s 2 -d 3 -p tcp -e 1040 -c 0 -i 14 -a 0 -x {1.0 3.1 7 ------- null}
+ -t 0.906239999999999 -s 3 -d 2 -p ack -e 40 -c 0 -i 22 -a 0 -x {3.1 1.0 7 ------- null}
- -t 0.906239999999999 -s 3 -d 2 -p ack -e 40 -c 0 -i 22 -a 0 -x {3.1 1.0 7 ------- null}
h -t 0.906239999999999 -s 3 -d 2 -p ack -e 40 -c 0 -i 22 -a 0 -x {3.1 1.0 -1 ------- null}
r -t 0.90704 -s 1 -d 2 -p tcp -e 1040 -c 0 -i 20 -a 0 -x {1.0 3.1 13 ------- null}
+ -t 0.90704 -s 2 -d 3 -p tcp -e 1040 -c 0 -i 20 -a 0 -x {1.0 3.1 13 ------- null}
- -t 0.90704 -s 2 -d 3 -p tcp -e 1040 -c 0 -i 20 -a 0 -x {1.0 3.1 13 ------- null}
h -t 0.90704 -s 2 -d 3 -p tcp -e 1040 -c 0 -i 20 -a 0 -x {1.0 3.1 -1 ------- null}
r -t 0.910399999999999 -s 2 -d 3 -p tcp -e 1040 -c 0 -i 15 -a 0 -x {1.0 3.1 8 ------- null}
+ -t 0.910399999999999 -s 3 -d 2 -p ack -e 40 -c 0 -i 23 -a 0 -x {3.1 1.0 8 ------- null}
- -t 0.910399999999999 -s 3 -d 2 -p ack -e 40 -c 0 -i 23 -a 0 -x {3.1 1.0 8 ------- null}
h -t 0.910399999999999 -s 3 -d 2 -p ack -e 40 -c 0 -i 23 -a 0 -x {3.1 1.0 -1 ------- null}
r -t 0.9112 -s 1 -d 2 -p tcp -e 1040 -c 0 -i 21 -a 0 -x {1.0 3.1 14 ------- null}
+ -t 0.9112 -s 2 -d 3 -p tcp -e 1040 -c 0 -i 21 -a 0 -x {1.0 3.1 14 ------- null}
- -t 0.9112 -s 2 -d 3 -p tcp -e 1040 -c 0 -i 21 -a 0 -x {1.0 3.1 14 ------- null}
h -t 0.9112 -s 2 -d 3 -p tcp -e 1040 -c 0 -i 21 -a 0 -x {1.0 3.1 -1 ------- null}
r -t 0.914559999999999 -s 2 -d 3 -p tcp -e 1040 -c 0 -i 16 -a 0 -x {1.0 3.1 9 ------- null}
+ -t 0.914559999999999 -s 3 -d 2 -p ack -e 40 -c 0 -i 24 -a 0 -x {3.1 1.0 9 ------- null}
- -t 0.914559999999999 -s 3 -d 2 -p ack -e 40 -c 0 -i 24 -a 0 -x {3.1 1.0 9 ------- null}
h -t 0.914559999999999 -s 3 -d 2 -p ack -e 40 -c 0 -i 24 -a 0 -x {3.1 1.0 -1 ------- null}
r -t 0.91872 -s 2 -d 3 -p tcp -e 1040 -c 0 -i 17 -a 0 -x {1.0 3.1 10 ------- null}
+ -t 0.91872 -s 3 -d 2 -p ack -e 40 -c 0 -i 25 -a 0 -x {3.1 1.0 10 ------- null}
- -t 0.91872 -s 3 -d 2 -p ack -e 40 -c 0 -i 25 -a 0 -x {3.1 1.0 10 ------- null}
h -t 0.91872 -s 3 -d 2 -p ack -e 40 -c 0 -i 25 -a 0 -x {3.1 1.0 -1 ------- null}
r -t 0.92288 -s 2 -d 3 -p tcp -e 1040 -c 0 -i 18 -a 0 -x {1.0 3.1 11 ------- null}
+ -t 0.92288 -s 3 -d 2 -p ack -e 40 -c 0 -i 26 -a 0 -x {3.1 1.0 11 ------- null}
- -t 0.92288 -s 3 -d 2 -p ack -e 40 -c 0 -i 26 -a 0 -x {3.1 1.0 11 ------- null}
h -t 0.92288 -s 3 -d 2 -p ack -e 40 -c 0 -i 26 -a 0 -x {3.1 1.0 -1 ------- null}
r -t 0.926399999999999 -s 3 -d 2 -p ack -e 40 -c 0 -i 22 -a 0 -x {3.1 1.0 7 ------- null}
+ -t 0.926399999999999 -s 2 -d 1 -p ack -e 40 -c 0 -i 22 -a 0 -x {3.1 1.0 7 ------- null}
- -t 0.926399999999999 -s 2 -d 1 -p ack -e 40 -c 0 -i 22 -a 0 -x {3.1 1.0 7 ------- null}
h -t 0.926399999999999 -s 2 -d 1 -p ack -e 40 -c 0 -i 22 -a 0 -x {3.1 1.0 -1 ------- null}
r -t 0.92704 -s 2 -d 3 -p tcp -e 1040 -c 0 -i 19 -a 0 -x {1.0 3.1 12 ------- null}
+ -t 0.92704 -s 3 -d 2 -p ack -e 40 -c 0 -i 27 -a 0 -x {3.1 1.0 12 ------- null}
- -t 0.92704 -s 3 -d 2 -p ack -e 40 -c 0 -i 27 -a 0 -x {3.1 1.0 12 ------- null}
h -t 0.92704 -s 3 -d 2 -p ack -e 40 -c 0 -i 27 -a 0 -x {3.1 1.0 -1 ------- null}
r -t 0.930559999999999 -s 3 -d 2 -p ack -e 40 -c 0 -i 23 -a 0 -x {3.1 1.0 8 ------- null}
+ -t 0.930559999999999 -s 2 -d 1 -p ack -e 40 -c 0 -i 23 -a 0 -x {3.1 1.0 8 ------- null}
- -t 0.930559999999999 -s 2 -d 1 -p ack -e 40 -c 0 -i 23 -a 0 -x {3.1 1.0 8 ------- null}
h -t 0.930559999999999 -s 2 -d 1 -p ack -e 40 -c 0 -i 23 -a 0 -x {3.1 1.0 -1 ------- null}
r -t 0.9312 -s 2 -d 3 -p tcp -e 1040 -c 0 -i 20 -a 0 -x {1.0 3.1 13 ------- null}
+ -t 0.9312 -s 3 -d 2 -p ack -e 40 -c 0 -i 28 -a 0 -x {3.1 1.0 13 ------- null}
- -t 0.9312 -s 3 -d 2 -p ack -e 40 -c 0 -i 28 -a 0 -x {3.1 1.0 13 ------- null}
h -t 0.9312 -s 3 -d 2 -p ack -e 40 -c 0 -i 28 -a 0 -x {3.1 1.0 -1 ------- null}
r -t 0.934719999999999 -s 3 -d 2 -p ack -e 40 -c 0 -i 24 -a 0 -x {3.1 1.0 9 ------- null}
+ -t 0.934719999999999 -s 2 -d 1 -p ack -e 40 -c 0 -i 24 -a 0 -x {3.1 1.0 9 ------- null}
- -t 0.934719999999999 -s 2 -d 1 -p ack -e 40 -c 0 -i 24 -a 0 -x {3.1 1.0 9 ------- null}
h -t 0.934719999999999 -s 2 -d 1 -p ack -e 40 -c 0 -i 24 -a 0 -x {3.1 1.0 -1 ------- null}
r -t 0.93536 -s 2 -d 3 -p tcp -e 1040 -c 0 -i 21 -a 0 -x {1.0 3.1 14 ------- null}
+ -t 0.93536 -s 3 -d 2 -p ack -e 40 -c 0 -i 29 -a 0 -x {3.1 1.0 14 ------- null}
- -t 0.93536 -s 3 -d 2 -p ack -e 40 -c 0 -i 29 -a 0 -x {3.1 1.0 14 ------- null}
h -t 0.93536 -s 3 -d 2 -p ack -e 40 -c 0 -i 29 -a 0 -x {3.1 1.0 -1 ------- null}
r -t 0.938879999999999 -s 3 -d 2 -p ack -e 40 -c 0 -i 25 -a 0 -x {3.1 1.0 10 ------- null}
+ -t 0.938879999999999 -s 2 -d 1 -p ack -e 40 -c 0 -i 25 -a 0 -x {3.1 1.0 10 ------- null}
- -t 0.938879999999999 -s 2 -d 1 -p ack -e 40 -c 0 -i 25 -a 0 -x {3.1 1.0 10 ------- null}
h -t 0.938879999999999 -s 2 -d 1 -p ack -e 40 -c 0 -i 25 -a 0 -x {3.1 1.0 -1 ------- null}
r -t 0.94304 -s 3 -d 2 -p ack -e 40 -c 0 -i 26 -a 0 -x {3.1 1.0 11 ------- null}
+ -t 0.94304 -s 2 -d 1 -p ack -e 40 -c 0 -i 26 -a 0 -x {3.1 1.0 11 ------- null}
- -t 0.94304 -s 2 -d 1 -p ack -e 40 -c 0 -i 26 -a 0 -x {3.1 1.0 11 ------- null}
h -t 0.94304 -s 2 -d 1 -p ack -e 40 -c 0 -i 26 -a 0 -x {3.1 1.0 -1 ------- null}
r -t 0.946559999999999 -s 2 -d 1 -p ack -e 40 -c 0 -i 22 -a 0 -x {3.1 1.0 7 ------- null}
+ -t 0.946559999999999 -s 1 -d 2 -p tcp -e 1040 -c 0 -i 30 -a 0 -x {1.0 3.1 15 ------- null}
- -t 0.946559999999999 -s 1 -d 2 -p tcp -e 1040 -c 0 -i 30 -a 0 -x {1.0 3.1 15 ------- null}
h -t 0.946559999999999 -s 1 -d 2 -p tcp -e 1040 -c 0 -i 30 -a 0 -x {1.0 3.1 -1 ------- null}
+ -t 0.946559999999999 -s 1 -d 2 -p tcp -e 1040 -c 0 -i 31 -a 0 -x {1.0 3.1 16 ------- null}
r -t 0.9472 -s 3 -d 2 -p ack -e 40 -c 0 -i 27 -a 0 -x {3.1 1.0 12 ------- null}
+ -t 0.9472 -s 2 -d 1 -p ack -e 40 -c 0 -i 27 -a 0 -x {3.1 1.0 12 ------- null}
- -t 0.9472 -s 2 -d 1 -p ack -e 40 -c 0 -i 27 -a 0 -x {3.1 1.0 12 ------- null}
h -t 0.9472 -s 2 -d 1 -p ack -e 40 -c 0 -i 27 -a 0 -x {3.1 1.0 -1 ------- null}
r -t 0.950719999999999 -s 2 -d 1 -p ack -e 40 -c 0 -i 23 -a 0 -x {3.1 1.0 8 ------- null}
+ -t 0.950719999999999 -s 1 -d 2 -p tcp -e 1040 -c 0 -i 32 -a 0 -x {1.0 3.1 17 ------- null}
+ -t 0.950719999999999 -s 1 -d 2 -p tcp -e 1040 -c 0 -i 33 -a 0 -x {1.0 3.1 18 ------- null}
- -t 0.950719999999999 -s 1 -d 2 -p tcp -e 1040 -c 0 -i 31 -a 0 -x {1.0 3.1 16 ------- null}
h -t 0.950719999999999 -s 1 -d 2 -p tcp -e 1040 -c 0 -i 31 -a 0 -x {1.0 3.1 -1 ------- null}
r -t 0.95136 -s 3 -d 2 -p ack -e 40 -c 0 -i 28 -a 0 -x {3.1 1.0 13 ------- null}
+ -t 0.95136 -s 2 -d 1 -p ack -e 40 -c 0 -i 28 -a 0 -x {3.1 1.0 13 ------- null}
- -t 0.95136 -s 2 -d 1 -p ack -e 40 -c 0 -i 28 -a 0 -x {3.1 1.0 13 ------- null}
h -t 0.95136 -s 2 -d 1 -p ack -e 40 -c 0 -i 28 -a 0 -x {3.1 1.0 -1 ------- null}
r -t 0.954879999999999 -s 2 -d 1 -p ack -e 40 -c 0 -i 24 -a 0 -x {3.1 1.0 9 ------- null}
+ -t 0.954879999999999 -s 1 -d 2 -p tcp -e 1040 -c 0 -i 34 -a 0 -x {1.0 3.1 19 ------- null}
+ -t 0.954879999999999 -s 1 -d 2 -p tcp -e 1040 -c 0 -i 35 -a 0 -x {1.0 3.1 20 ------- null}
- -t 0.954879999999999 -s 1 -d 2 -p tcp -e 1040 -c 0 -i 32 -a 0 -x {1.0 3.1 17 ------- null}
h -t 0.954879999999999 -s 1 -d 2 -p tcp -e 1040 -c 0 -i 32 -a 0 -x {1.0 3.1 -1 ------- null}
r -t 0.95552 -s 3 -d 2 -p ack -e 40 -c 0 -i 29 -a 0 -x {3.1 1.0 14 ------- null}
+ -t 0.95552 -s 2 -d 1 -p ack -e 40 -c 0 -i 29 -a 0 -x {3.1 1.0 14 ------- null}
- -t 0.95552 -s 2 -d 1 -p ack -e 40 -c 0 -i 29 -a 0 -x {3.1 1.0 14 ------- null}
h -t 0.95552 -s 2 -d 1 -p ack -e 40 -c 0 -i 29 -a 0 -x {3.1 1.0 -1 ------- null}
r -t 0.959039999999999 -s 2 -d 1 -p ack -e 40 -c 0 -i 25 -a 0 -x {3.1 1.0 10 ------- null}
+ -t 0.959039999999999 -s 1 -d 2 -p tcp -e 1040 -c 0 -i 36 -a 0 -x {1.0 3.1 21 ------- null}
+ -t 0.959039999999999 -s 1 -d 2 -p tcp -e 1040 -c 0 -i 37 -a 0 -x {1.0 3.1 22 ------- null}
- -t 0.959039999999999 -s 1 -d 2 -p tcp -e 1040 -c 0 -i 33 -a 0 -x {1.0 3.1 18 ------- null}
h -t 0.959039999999999 -s 1 -d 2 -p tcp -e 1040 -c 0 -i 33 -a 0 -x {1.0 3.1 -1 ------- null}
r -t 0.9632 -s 2 -d 1 -p ack -e 40 -c 0 -i 26 -a 0 -x {3.1 1.0 11 ------- null}
+ -t 0.9632 -s 1 -d 2 -p tcp -e 1040 -c 0 -i 38 -a 0 -x {1.0 3.1 23 ------- null}
+ -t 0.9632 -s 1 -d 2 -p tcp -e 1040 -c 0 -i 39 -a 0 -x {1.0 3.1 24 ------- null}
- -t 0.9632 -s 1 -d 2 -p tcp -e 1040 -c 0 -i 34 -a 0 -x {1.0 3.1 19 ------- null}
h -t 0.9632 -s 1 -d 2 -p tcp -e 1040 -c 0 -i 34 -a 0 -x {1.0 3.1 -1 ------- null}
r -t 0.96736 -s 2 -d 1 -p ack -e 40 -c 0 -i 27 -a 0 -x {3.1 1.0 12 ------- null}
+ -t 0.96736 -s 1 -d 2 -p tcp -e 1040 -c 0 -i 40 -a 0 -x {1.0 3.1 25 ------- null}
+ -t 0.96736 -s 1 -d 2 -p tcp -e 1040 -c 0 -i 41 -a 0 -x {1.0 3.1 26 ------- null}
- -t 0.96736 -s 1 -d 2 -p tcp -e 1040 -c 0 -i 35 -a 0 -x {1.0 3.1 20 ------- null}
h -t 0.96736 -s 1 -d 2 -p tcp -e 1040 -c 0 -i 35 -a 0 -x {1.0 3.1 -1 ------- null}
r -t 0.970719999999999 -s 1 -d 2 -p tcp -e 1040 -c 0 -i 30 -a 0 -x {1.0 3.1 15 ------- null}
+ -t 0.970719999999999 -s 2 -d 3 -p tcp -e 1040 -c 0 -i 30 -a 0 -x {1.0 3.1 15 ------- null}
- -t 0.970719999999999 -s 2 -d 3 -p tcp -e 1040 -c 0 -i 30 -a 0 -x {1.0 3.1 15 ------- null}
h -t 0.970719999999999 -s 2 -d 3 -p tcp -e 1040 -c 0 -i 30 -a 0 -x {1.0 3.1 -1 ------- null}
r -t 0.97152 -s 2 -d 1 -p ack -e 40 -c 0 -i 28 -a 0 -x {3.1 1.0 13 ------- null}
+ -t 0.97152 -s 1 -d 2 -p tcp -e 1040 -c 0 -i 42 -a 0 -x {1.0 3.1 27 ------- null}
+ -t 0.97152 -s 1 -d 2 -p tcp -e 1040 -c 0 -i 43 -a 0 -x {1.0 3.1 28 ------- null}
- -t 0.97152 -s 1 -d 2 -p tcp -e 1040 -c 0 -i 36 -a 0 -x {1.0 3.1 21 ------- null}
h -t 0.97152 -s 1 -d 2 -p tcp -e 1040 -c 0 -i 36 -a 0 -x {1.0 3.1 -1 ------- null}
r -t 0.974879999999999 -s 1 -d 2 -p tcp -e 1040 -c 0 -i 31 -a 0 -x {1.0 3.1 16 ------- null}
+ -t 0.974879999999999 -s 2 -d 3 -p tcp -e 1040 -c 0 -i 31 -a 0 -x {1.0 3.1 16 ------- null}
- -t 0.974879999999999 -s 2 -d 3 -p tcp -e 1040 -c 0 -i 31 -a 0 -x {1.0 3.1 16 ------- null}
h -t 0.974879999999999 -s 2 -d 3 -p tcp -e 1040 -c 0 -i 31 -a 0 -x {1.0 3.1 -1 ------- null}
r -t 0.97568 -s 2 -d 1 -p ack -e 40 -c 0 -i 29 -a 0 -x {3.1 1.0 14 ------- null}
+ -t 0.97568 -s 1 -d 2 -p tcp -e 1040 -c 0 -i 44 -a 0 -x {1.0 3.1 29 ------- null}
+ -t 0.97568 -s 1 -d 2 -p tcp -e 1040 -c 0 -i 45 -a 0 -x {1.0 3.1 30 ------- null}
- -t 0.97568 -s 1 -d 2 -p tcp -e 1040 -c 0 -i 37 -a 0 -x {1.0 3.1 22 ------- null}
h -t 0.97568 -s 1 -d 2 -p tcp -e 1040 -c 0 -i 37 -a 0 -x {1.0 3.1 -1 ------- null}
r -t 0.979039999999999 -s 1 -d 2 -p tcp -e 1040 -c 0 -i 32 -a 0 -x {1.0 3.1 17 ------- null}
+ -t 0.979039999999999 -s 2 -d 3 -p tcp -e 1040 -c 0 -i 32 -a 0 -x {1.0 3.1 17 ------- null}
- -t 0.979039999999999 -s 2 -d 3 -p tcp -e 1040 -c 0 -i 32 -a 0 -x {1.0 3.1 17 ------- null}
h -t 0.979039999999999 -s 2 -d 3 -p tcp -e 1040 -c 0 -i 32 -a 0 -x {1.0 3.1 -1 ------- null}
- -t 0.97984 -s 1 -d 2 -p tcp -e 1040 -c 0 -i 38 -a 0 -x {1.0 3.1 23 ------- null}
h -t 0.97984 -s 1 -d 2 -p tcp -e 1040 -c 0 -i 38 -a 0 -x {1.0 3.1 -1 ------- null}
r -t 0.983199999999999 -s 1 -d 2 -p tcp -e 1040 -c 0 -i 33 -a 0 -x {1.0 3.1 18 ------- null}
+ -t 0.983199999999999 -s 2 -d 3 -p tcp -e 1040 -c 0 -i 33 -a 0 -x {1.0 3.1 18 ------- null}
- -t 0.983199999999999 -s 2 -d 3 -p tcp -e 1040 -c 0 -i 33 -a 0 -x {1.0 3.1 18 ------- null}
h -t 0.983199999999999 -s 2 -d 3 -p tcp -e 1040 -c 0 -i 33 -a 0 -x {1.0 3.1 -1 ------- null}
- -t 0.984 -s 1 -d 2 -p tcp -e 1040 -c 0 -i 39 -a 0 -x {1.0 3.1 24 ------- null}
h -t 0.984 -s 1 -d 2 -p tcp -e 1040 -c 0 -i 39 -a 0 -x {1.0 3.1 -1 ------- null}
r -t 0.987359999999999 -s 1 -d 2 -p tcp -e 1040 -c 0 -i 34 -a 0 -x {1.0 3.1 19 ------- null}
+ -t 0.987359999999999 -s 2 -d 3 -p tcp -e 1040 -c 0 -i 34 -a 0 -x {1.0 3.1 19 ------- null}
- -t 0.987359999999999 -s 2 -d 3 -p tcp -e 1040 -c 0 -i 34 -a 0 -x {1.0 3.1 19 ------- null}
h -t 0.987359999999999 -s 2 -d 3 -p tcp -e 1040 -c 0 -i 34 -a 0 -x {1.0 3.1 -1 ------- null}
- -t 0.98816 -s 1 -d 2 -p tcp -e 1040 -c 0 -i 40 -a 0 -x {1.0 3.1 25 ------- null}
h -t 0.98816 -s 1 -d 2 -p tcp -e 1040 -c 0 -i 40 -a 0 -x {1.0 3.1 -1 ------- null}
r -t 0.99152 -s 1 -d 2 -p tcp -e 1040 -c 0 -i 35 -a 0 -x {1.0 3.1 20 ------- null}
+ -t 0.99152 -s 2 -d 3 -p tcp -e 1040 -c 0 -i 35 -a 0 -x {1.0 3.1 20 ------- null}
- -t 0.99152 -s 2 -d 3 -p tcp -e 1040 -c 0 -i 35 -a 0 -x {1.0 3.1 20 ------- null}
h -t 0.99152 -s 2 -d 3 -p tcp -e 1040 -c 0 -i 35 -a 0 -x {1.0 3.1 -1 ------- null}
- -t 0.99232 -s 1 -d 2 -p tcp -e 1040 -c 0 -i 41 -a 0 -x {1.0 3.1 26 ------- null}
h -t 0.99232 -s 1 -d 2 -p tcp -e 1040 -c 0 -i 41 -a 0 -x {1.0 3.1 -1 ------- null}
r -t 0.994879999999999 -s 2 -d 3 -p tcp -e 1040 -c 0 -i 30 -a 0 -x {1.0 3.1 15 ------- null}
+ -t 0.994879999999999 -s 3 -d 2 -p ack -e 40 -c 0 -i 46 -a 0 -x {3.1 1.0 15 ------- null}
- -t 0.994879999999999 -s 3 -d 2 -p ack -e 40 -c 0 -i 46 -a 0 -x {3.1 1.0 15 ------- null}
h -t 0.994879999999999 -s 3 -d 2 -p ack -e 40 -c 0 -i 46 -a 0 -x {3.1 1.0 -1 ------- null}
r -t 0.99568 -s 1 -d 2 -p tcp -e 1040 -c 0 -i 36 -a 0 -x {1.0 3.1 21 ------- null}
+ -t 0.99568 -s 2 -d 3 -p tcp -e 1040 -c 0 -i 36 -a 0 -x {1.0 3.1 21 ------- null}
- -t 0.99568 -s 2 -d 3 -p tcp -e 1040 -c 0 -i 36 -a 0 -x {1.0 3.1 21 ------- null}
h -t 0.99568 -s 2 -d 3 -p tcp -e 1040 -c 0 -i 36 -a 0 -x {1.0 3.1 -1 ------- null}
- -t 0.99648 -s 1 -d 2 -p tcp -e 1040 -c 0 -i 42 -a 0 -x {1.0 3.1 27 ------- null}
h -t 0.99648 -s 1 -d 2 -p tcp -e 1040 -c 0 -i 42 -a 0 -x {1.0 3.1 -1 ------- null}
r -t 0.999039999999999 -s 2 -d 3 -p tcp -e 1040 -c 0 -i 31 -a 0 -x {1.0 3.1 16 ------- null}
+ -t 0.999039999999999 -s 3 -d 2 -p ack -e 40 -c 0 -i 47 -a 0 -x {3.1 1.0 16 ------- null}
- -t 0.999039999999999 -s 3 -d 2 -p ack -e 40 -c 0 -i 47 -a 0 -x {3.1 1.0 16 ------- null}
h -t 0.999039999999999 -s 3 -d 2 -p ack -e 40 -c 0 -i 47 -a 0 -x {3.1 1.0 -1 ------- null}
r -t 0.99984 -s 1 -d 2 -p tcp -e 1040 -c 0 -i 37 -a 0 -x {1.0 3.1 22 ------- null}
+ -t 0.99984 -s 2 -d 3 -p tcp -e 1040 -c 0 -i 37 -a 0 -x {1.0 3.1 22 ------- null}
- -t 0.99984 -s 2 -d 3 -p tcp -e 1040 -c 0 -i 37 -a 0 -x {1.0 3.1 22 ------- null}
h -t 0.99984 -s 2 -d 3 -p tcp -e 1040 -c 0 -i 37 -a 0 -x {1.0 3.1 -1 ------- null}
- -t 1.00064 -s 1 -d 2 -p tcp -e 1040 -c 0 -i 43 -a 0 -x {1.0 3.1 28 ------- null}
h -t 1.00064 -s 1 -d 2 -p tcp -e 1040 -c 0 -i 43 -a 0 -x {1.0 3.1 -1 ------- null}
r -t 1.0032 -s 2 -d 3 -p tcp -e 1040 -c 0 -i 32 -a 0 -x {1.0 3.1 17 ------- null}
+ -t 1.0032 -s 3 -d 2 -p ack -e 40 -c 0 -i 48 -a 0 -x {3.1 1.0 17 ------- null}
- -t 1.0032 -s 3 -d 2 -p ack -e 40 -c 0 -i 48 -a 0 -x {3.1 1.0 17 ------- null}
h -t 1.0032 -s 3 -d 2 -p ack -e 40 -c 0 -i 48 -a 0 -x {3.1 1.0 -1 ------- null}
r -t 1.004 -s 1 -d 2 -p tcp -e 1040 -c 0 -i 38 -a 0 -x {1.0 3.1 23 ------- null}
+ -t 1.004 -s 2 -d 3 -p tcp -e 1040 -c 0 -i 38 -a 0 -x {1.0 3.1 23 ------- null}
- -t 1.004 -s 2 -d 3 -p tcp -e 1040 -c 0 -i 38 -a 0 -x {1.0 3.1 23 ------- null}
h -t 1.004 -s 2 -d 3 -p tcp -e 1040 -c 0 -i 38 -a 0 -x {1.0 3.1 -1 ------- null}
- -t 1.0048 -s 1 -d 2 -p tcp -e 1040 -c 0 -i 44 -a 0 -x {1.0 3.1 29 ------- null}
h -t 1.0048 -s 1 -d 2 -p tcp -e 1040 -c 0 -i 44 -a 0 -x {1.0 3.1 -1 ------- null}
r -t 1.00736 -s 2 -d 3 -p tcp -e 1040 -c 0 -i 33 -a 0 -x {1.0 3.1 18 ------- null}
+ -t 1.00736 -s 3 -d 2 -p ack -e 40 -c 0 -i 49 -a 0 -x {3.1 1.0 18 ------- null}
- -t 1.00736 -s 3 -d 2 -p ack -e 40 -c 0 -i 49 -a 0 -x {3.1 1.0 18 ------- null}
h -t 1.00736 -s 3 -d 2 -p ack -e 40 -c 0 -i 49 -a 0 -x {3.1 1.0 -1 ------- null}
r -t 1.00816 -s 1 -d 2 -p tcp -e 1040 -c 0 -i 39 -a 0 -x {1.0 3.1 24 ------- null}
+ -t 1.00816 -s 2 -d 3 -p tcp -e 1040 -c 0 -i 39 -a 0 -x {1.0 3.1 24 ------- null}
- -t 1.00816 -s 2 -d 3 -p tcp -e 1040 -c 0 -i 39 -a 0 -x {1.0 3.1 24 ------- null}
h -t 1.00816 -s 2 -d 3 -p tcp -e 1040 -c 0 -i 39 -a 0 -x {1.0 3.1 -1 ------- null}
- -t 1.00896 -s 1 -d 2 -p tcp -e 1040 -c 0 -i 45 -a 0 -x {1.0 3.1 30 ------- null}
h -t 1.00896 -s 1 -d 2 -p tcp -e 1040 -c 0 -i 45 -a 0 -x {1.0 3.1 -1 ------- null}
r -t 1.01152 -s 2 -d 3 -p tcp -e 1040 -c 0 -i 34 -a 0 -x {1.0 3.1 19 ------- null}
+ -t 1.01152 -s 3 -d 2 -p ack -e 40 -c 0 -i 50 -a 0 -x {3.1 1.0 19 ------- null}
- -t 1.01152 -s 3 -d 2 -p ack -e 40 -c 0 -i 50 -a 0 -x {3.1 1.0 19 ------- null}
h -t 1.01152 -s 3 -d 2 -p ack -e 40 -c 0 -i 50 -a 0 -x {3.1 1.0 -1 ------- null}
r -t 1.01232 -s 1 -d 2 -p tcp -e 1040 -c 0 -i 40 -a 0 -x {1.0 3.1 25 ------- null}
+ -t 1.01232 -s 2 -d 3 -p tcp -e 1040 -c 0 -i 40 -a 0 -x {1.0 3.1 25 ------- null}
- -t 1.01232 -s 2 -d 3 -p tcp -e 1040 -c 0 -i 40 -a 0 -x {1.0 3.1 25 ------- null}
h -t 1.01232 -s 2 -d 3 -p tcp -e 1040 -c 0 -i 40 -a 0 -x {1.0 3.1 -1 ------- null}