+ 0.5 0 2 tcp 40 ------- 0 0.0 3.0 0 0
- 0.5 0 2 tcp 40 ------- 0 0.0 3.0 0 0
r 0.52016 0 2 tcp 40 ------- 0 0.0 3.0 0 0
+ 0.52016 2 3 tcp 40 ------- 0 0.0 3.0 0 0
- 0.52016 2 3 tcp 40 ------- 0 0.0 3.0 0 0
r 0.54176 2 3 tcp 40 ------- 0 0.0 3.0 0 0
+ 0.54176 3 2 ack 40 ------- 0 3.0 0.0 0 1
- 0.54176 3 2 ack 40 ------- 0 3.0 0.0 0 1
r 0.56336 3 2 ack 40 ------- 0 3.0 0.0 0 1
+ 0.56336 2 0 ack 40 ------- 0 3.0 0.0 0 1
- 0.56336 2 0 ack 40 ------- 0 3.0 0.0 0 1
r 0.58352 2 0 ack 40 ------- 0 3.0 0.0 0 1
+ 0.58352 0 2 tcp 1040 ------- 0 0.0 3.0 1 2
- 0.58352 0 2 tcp 1040 ------- 0 0.0 3.0 1 2
+ 0.58352 0 2 tcp 1040 ------- 0 0.0 3.0 2 3
- 0.58768 0 2 tcp 1040 ------- 0 0.0 3.0 2 3
+ 0.6 1 2 cbr 210 ------- 0 1.0 3.1 0 4
- 0.6 1 2 cbr 210 ------- 0 1.0 3.1 0 4
+ 0.60375 1 2 cbr 210 ------- 0 1.0 3.1 1 5
- 0.60375 1 2 cbr 210 ------- 0 1.0 3.1 1 5
+ 0.6075 1 2 cbr 210 ------- 0 1.0 3.1 2 6
- 0.6075 1 2 cbr 210 ------- 0 1.0 3.1 2 6
r 0.60768 0 2 tcp 1040 ------- 0 0.0 3.0 1 2
+ 0.60768 2 3 tcp 1040 ------- 0 0.0 3.0 1 2
- 0.60768 2 3 tcp 1040 ------- 0 0.0 3.0 1 2
+ 0.61125 1 2 cbr 210 ------- 0 1.0 3.1 3 7
- 0.61125 1 2 cbr 210 ------- 0 1.0 3.1 3 7
r 0.61184 0 2 tcp 1040 ------- 0 0.0 3.0 2 3
+ 0.61184 2 3 tcp 1040 ------- 0 0.0 3.0 2 3
+ 0.615 1 2 cbr 210 ------- 0 1.0 3.1 4 8
- 0.615 1 2 cbr 210 ------- 0 1.0 3.1 4 8
+ 0.61875 1 2 cbr 210 ------- 0 1.0 3.1 5 9
- 0.61875 1 2 cbr 210 ------- 0 1.0 3.1 5 9
r 0.62084 1 2 cbr 210 ------- 0 1.0 3.1 0 4
+ 0.62084 2 3 cbr 210 ------- 0 1.0 3.1 0 4
+ 0.6225 1 2 cbr 210 ------- 0 1.0 3.1 6 10
- 0.6225 1 2 cbr 210 ------- 0 1.0 3.1 6 10
r 0.62459 1 2 cbr 210 ------- 0 1.0 3.1 1 5
+ 0.62459 2 3 cbr 210 ------- 0 1.0 3.1 1 5
+ 0.62625 1 2 cbr 210 ------- 0 1.0 3.1 7 11
- 0.62625 1 2 cbr 210 ------- 0 1.0 3.1 7 11
r 0.62834 1 2 cbr 210 ------- 0 1.0 3.1 2 6
+ 0.62834 2 3 cbr 210 ------- 0 1.0 3.1 2 6
+ 0.63 1 2 cbr 210 ------- 0 1.0 3.1 8 12
- 0.63 1 2 cbr 210 ------- 0 1.0 3.1 8 12
r 0.63209 1 2 cbr 210 ------- 0 1.0 3.1 3 7
+ 0.63209 2 3 cbr 210 ------- 0 1.0 3.1 3 7
+ 0.63375 1 2 cbr 210 ------- 0 1.0 3.1 9 13
- 0.63375 1 2 cbr 210 ------- 0 1.0 3.1 9 13
r 0.63584 1 2 cbr 210 ------- 0 1.0 3.1 4 8
+ 0.63584 2 3 cbr 210 ------- 0 1.0 3.1 4 8
+ 0.6375 1 2 cbr 210 ------- 0 1.0 3.1 10 14
- 0.6375 1 2 cbr 210 ------- 0 1.0 3.1 10 14
r 0.63959 1 2 cbr 210 ------- 0 1.0 3.1 5 9
+ 0.63959 2 3 cbr 210 ------- 0 1.0 3.1 5 9
+ 0.64125 1 2 cbr 210 ------- 0 1.0 3.1 11 15
- 0.64125 1 2 cbr 210 ------- 0 1.0 3.1 11 15
r 0.64334 1 2 cbr 210 ------- 0 1.0 3.1 6 10
+ 0.64334 2 3 cbr 210 ------- 0 1.0 3.1 6 10
+ 0.645 1 2 cbr 210 ------- 0 1.0 3.1 12 16
- 0.645 1 2 cbr 210 ------- 0 1.0 3.1 12 16
r 0.64709 1 2 cbr 210 ------- 0 1.0 3.1 7 11
+ 0.64709 2 3 cbr 210 ------- 0 1.0 3.1 7 11
+ 0.64875 1 2 cbr 210 ------- 0 1.0 3.1 13 17
- 0.64875 1 2 cbr 210 ------- 0 1.0 3.1 13 17
- 0.64928 2 3 tcp 1040 ------- 0 0.0 3.0 2 3
r 0.65084 1 2 cbr 210 ------- 0 1.0 3.1 8 12
+ 0.65084 2 3 cbr 210 ------- 0 1.0 3.1 8 12
+ 0.6525 1 2 cbr 210 ------- 0 1.0 3.1 14 18
- 0.6525 1 2 cbr 210 ------- 0 1.0 3.1 14 18
r 0.65459 1 2 cbr 210 ------- 0 1.0 3.1 9 13
+ 0.65459 2 3 cbr 210 ------- 0 1.0 3.1 9 13
+ 0.65625 1 2 cbr 210 ------- 0 1.0 3.1 15 19
- 0.65625 1 2 cbr 210 ------- 0 1.0 3.1 15 19
r 0.65834 1 2 cbr 210 ------- 0 1.0 3.1 10 14
+ 0.65834 2 3 cbr 210 ------- 0 1.0 3.1 10 14
+ 0.66 1 2 cbr 210 ------- 0 1.0 3.1 16 20
- 0.66 1 2 cbr 210 ------- 0 1.0 3.1 16 20
r 0.66209 1 2 cbr 210 ------- 0 1.0 3.1 11 15
+ 0.66209 2 3 cbr 210 ------- 0 1.0 3.1 11 15
+ 0.66375 1 2 cbr 210 ------- 0 1.0 3.1 17 21
- 0.66375 1 2 cbr 210 ------- 0 1.0 3.1 17 21
r 0.66584 1 2 cbr 210 ------- 0 1.0 3.1 12 16
+ 0.66584 2 3 cbr 210 ------- 0 1.0 3.1 12 16
+ 0.6675 1 2 cbr 210 ------- 0 1.0 3.1 18 22
- 0.6675 1 2 cbr 210 ------- 0 1.0 3.1 18 22
r 0.66928 2 3 tcp 1040 ------- 0 0.0 3.0 1 2
+ 0.66928 3 2 ack 40 ------- 0 3.0 0.0 1 23
- 0.66928 3 2 ack 40 ------- 0 3.0 0.0 1 23
r 0.66959 1 2 cbr 210 ------- 0 1.0 3.1 13 17
+ 0.66959 2 3 cbr 210 ------- 0 1.0 3.1 13 17
+ 0.67125 1 2 cbr 210 ------- 0 1.0 3.1 19 24
- 0.67125 1 2 cbr 210 ------- 0 1.0 3.1 19 24
r 0.67334 1 2 cbr 210 ------- 0 1.0 3.1 14 18
+ 0.67334 2 3 cbr 210 ------- 0 1.0 3.1 14 18
+ 0.675 1 2 cbr 210 ------- 0 1.0 3.1 20 25
- 0.675 1 2 cbr 210 ------- 0 1.0 3.1 20 25
r 0.67709 1 2 cbr 210 ------- 0 1.0 3.1 15 19
+ 0.67709 2 3 cbr 210 ------- 0 1.0 3.1 15 19
+ 0.67875 1 2 cbr 210 ------- 0 1.0 3.1 21 26
- 0.67875 1 2 cbr 210 ------- 0 1.0 3.1 21 26
r 0.68084 1 2 cbr 210 ------- 0 1.0 3.1 16 20
+ 0.68084 2 3 cbr 210 ------- 0 1.0 3.1 16 20
+ 0.6825 1 2 cbr 210 ------- 0 1.0 3.1 22 27
- 0.6825 1 2 cbr 210 ------- 0 1.0 3.1 22 27
r 0.68459 1 2 cbr 210 ------- 0 1.0 3.1 17 21
+ 0.68459 2 3 cbr 210 ------- 0 1.0 3.1 17 21
+ 0.68625 1 2 cbr 210 ------- 0 1.0 3.1 23 28
- 0.68625 1 2 cbr 210 ------- 0 1.0 3.1 23 28
r 0.68834 1 2 cbr 210 ------- 0 1.0 3.1 18 22
+ 0.68834 2 3 cbr 210 ------- 0 1.0 3.1 18 22
+ 0.69 1 2 cbr 210 ------- 0 1.0 3.1 24 29
- 0.69 1 2 cbr 210 ------- 0 1.0 3.1 24 29
- 0.69088 2 3 cbr 210 ------- 0 1.0 3.1 0 4
r 0.69088 3 2 ack 40 ------- 0 3.0 0.0 1 23
+ 0.69088 2 0 ack 40 ------- 0 3.0 0.0 1 23
- 0.69088 2 0 ack 40 ------- 0 3.0 0.0 1 23
r 0.69209 1 2 cbr 210 ------- 0 1.0 3.1 19 24
+ 0.69209 2 3 cbr 210 ------- 0 1.0 3.1 19 24
+ 0.69375 1 2 cbr 210 ------- 0 1.0 3.1 25 30
- 0.69375 1 2 cbr 210 ------- 0 1.0 3.1 25 30
r 0.69584 1 2 cbr 210 ------- 0 1.0 3.1 20 25
+ 0.69584 2 3 cbr 210 ------- 0 1.0 3.1 20 25
+ 0.6975 1 2 cbr 210 ------- 0 1.0 3.1 26 31
- 0.6975 1 2 cbr 210 ------- 0 1.0 3.1 26 31
- 0.69928 2 3 cbr 210 ------- 0 1.0 3.1 1 5
r 0.69959 1 2 cbr 210 ------- 0 1.0 3.1 21 26
+ 0.69959 2 3 cbr 210 ------- 0 1.0 3.1 21 26
+ 0.70125 1 2 cbr 210 ------- 0 1.0 3.1 27 32
- 0.70125 1 2 cbr 210 ------- 0 1.0 3.1 27 32
r 0.70334 1 2 cbr 210 ------- 0 1.0 3.1 22 27
+ 0.70334 2 3 cbr 210 ------- 0 1.0 3.1 22 27
+ 0.705 1 2 cbr 210 ------- 0 1.0 3.1 28 33
- 0.705 1 2 cbr 210 ------- 0 1.0 3.1 28 33
r 0.70709 1 2 cbr 210 ------- 0 1.0 3.1 23 28
+ 0.70709 2 3 cbr 210 ------- 0 1.0 3.1 23 28
- 0.70768 2 3 cbr 210 ------- 0 1.0 3.1 2 6
+ 0.70875 1 2 cbr 210 ------- 0 1.0 3.1 29 34
- 0.70875 1 2 cbr 210 ------- 0 1.0 3.1 29 34
r 0.71084 1 2 cbr 210 ------- 0 1.0 3.1 24 29
+ 0.71084 2 3 cbr 210 ------- 0 1.0 3.1 24 29
r 0.71088 2 3 tcp 1040 ------- 0 0.0 3.0 2 3
+ 0.71088 3 2 ack 40 ------- 0 3.0 0.0 2 35
- 0.71088 3 2 ack 40 ------- 0 3.0 0.0 2 35
r 0.71104 2 0 ack 40 ------- 0 3.0 0.0 1 23
+ 0.71104 0 2 tcp 1040 ------- 0 0.0 3.0 3 36
- 0.71104 0 2 tcp 1040 ------- 0 0.0 3.0 3 36
+ 0.71104 0 2 tcp 1040 ------- 0 0.0 3.0 4 37
+ 0.7125 1 2 cbr 210 ------- 0 1.0 3.1 30 38
- 0.7125 1 2 cbr 210 ------- 0 1.0 3.1 30 38
r 0.71459 1 2 cbr 210 ------- 0 1.0 3.1 25 30
+ 0.71459 2 3 cbr 210 ------- 0 1.0 3.1 25 30
- 0.7152 0 2 tcp 1040 ------- 0 0.0 3.0 4 37
- 0.71608 2 3 cbr 210 ------- 0 1.0 3.1 3 7
+ 0.71625 1 2 cbr 210 ------- 0 1.0 3.1 31 39
- 0.71625 1 2 cbr 210 ------- 0 1.0 3.1 31 39
r 0.71834 1 2 cbr 210 ------- 0 1.0 3.1 26 31
+ 0.71834 2 3 cbr 210 ------- 0 1.0 3.1 26 31
r 0.71928 2 3 cbr 210 ------- 0 1.0 3.1 0 4
+ 0.72 1 2 cbr 210 ------- 0 1.0 3.1 32 40
- 0.72 1 2 cbr 210 ------- 0 1.0 3.1 32 40
r 0.72209 1 2 cbr 210 ------- 0 1.0 3.1 27 32
+ 0.72209 2 3 cbr 210 ------- 0 1.0 3.1 27 32
+ 0.72375 1 2 cbr 210 ------- 0 1.0 3.1 33 41
- 0.72375 1 2 cbr 210 ------- 0 1.0 3.1 33 41
- 0.72448 2 3 cbr 210 ------- 0 1.0 3.1 4 8
r 0.72584 1 2 cbr 210 ------- 0 1.0 3.1 28 33
+ 0.72584 2 3 cbr 210 ------- 0 1.0 3.1 28 33
+ 0.7275 1 2 cbr 210 ------- 0 1.0 3.1 34 42
- 0.7275 1 2 cbr 210 ------- 0 1.0 3.1 34 42
r 0.72768 2 3 cbr 210 ------- 0 1.0 3.1 1 5
r 0.72959 1 2 cbr 210 ------- 0 1.0 3.1 29 34
+ 0.72959 2 3 cbr 210 ------- 0 1.0 3.1 29 34
+ 0.73125 1 2 cbr 210 ------- 0 1.0 3.1 35 43
- 0.73125 1 2 cbr 210 ------- 0 1.0 3.1 35 43
r 0.73248 3 2 ack 40 ------- 0 3.0 0.0 2 35
+ 0.73248 2 0 ack 40 ------- 0 3.0 0.0 2 35
- 0.73248 2 0 ack 40 ------- 0 3.0 0.0 2 35
- 0.73288 2 3 cbr 210 ------- 0 1.0 3.1 5 9
r 0.73334 1 2 cbr 210 ------- 0 1.0 3.1 30 38
+ 0.73334 2 3 cbr 210 ------- 0 1.0 3.1 30 38
+ 0.735 1 2 cbr 210 ------- 0 1.0 3.1 36 44
- 0.735 1 2 cbr 210 ------- 0 1.0 3.1 36 44
r 0.7352 0 2 tcp 1040 ------- 0 0.0 3.0 3 36
+ 0.7352 2 3 tcp 1040 ------- 0 0.0 3.0 3 36
r 0.73608 2 3 cbr 210 ------- 0 1.0 3.1 2 6
r 0.73709 1 2 cbr 210 ------- 0 1.0 3.1 31 39
+ 0.73709 2 3 cbr 210 ------- 0 1.0 3.1 31 39
+ 0.73875 1 2 cbr 210 ------- 0 1.0 3.1 37 45
- 0.73875 1 2 cbr 210 ------- 0 1.0 3.1 37 45
r 0.73936 0 2 tcp 1040 ------- 0 0.0 3.0 4 37
+ 0.73936 2 3 tcp 1040 ------- 0 0.0 3.0 4 37
r 0.74084 1 2 cbr 210 ------- 0 1.0 3.1 32 40
+ 0.74084 2 3 cbr 210 ------- 0 1.0 3.1 32 40
- 0.74128 2 3 cbr 210 ------- 0 1.0 3.1 6 10
+ 0.7425 1 2 cbr 210 ------- 0 1.0 3.1 38 46
- 0.7425 1 2 cbr 210 ------- 0 1.0 3.1 38 46
r 0.74448 2 3 cbr 210 ------- 0 1.0 3.1 3 7
r 0.74459 1 2 cbr 210 ------- 0 1.0 3.1 33 41
+ 0.74459 2 3 cbr 210 ------- 0 1.0 3.1 33 41
+ 0.74625 1 2 cbr 210 ------- 0 1.0 3.1 39 47
- 0.74625 1 2 cbr 210 ------- 0 1.0 3.1 39 47
r 0.74834 1 2 cbr 210 ------- 0 1.0 3.1 34 42
+ 0.74834 2 3 cbr 210 ------- 0 1.0 3.1 34 42
- 0.74968 2 3 cbr 210 ------- 0 1.0 3.1 7 11
+ 0.75 1 2 cbr 210 ------- 0 1.0 3.1 40 48
- 0.75 1 2 cbr 210 ------- 0 1.0 3.1 40 48
r 0.75209 1 2 cbr 210 ------- 0 1.0 3.1 35 43
+ 0.75209 2 3 cbr 210 ------- 0 1.0 3.1 35 43
r 0.75264 2 0 ack 40 ------- 0 3.0 0.0 2 35
+ 0.75264 0 2 tcp 1040 ------- 0 0.0 3.0 5 49
- 0.75264 0 2 tcp 1040 ------- 0 0.0 3.0 5 49
+ 0.75264 0 2 tcp 1040 ------- 0 0.0 3.0 6 50
r 0.75288 2 3 cbr 210 ------- 0 1.0 3.1 4 8
+ 0.75375 1 2 cbr 210 ------- 0 1.0 3.1 41 51
- 0.75375 1 2 cbr 210 ------- 0 1.0 3.1 41 51
r 0.75584 1 2 cbr 210 ------- 0 1.0 3.1 36 44
+ 0.75584 2 3 cbr 210 ------- 0 1.0 3.1 36 44
- 0.7568 0 2 tcp 1040 ------- 0 0.0 3.0 6 50
+ 0.7575 1 2 cbr 210 ------- 0 1.0 3.1 42 52
- 0.7575 1 2 cbr 210 ------- 0 1.0 3.1 42 52
- 0.75808 2 3 cbr 210 ------- 0 1.0 3.1 8 12
r 0.75959 1 2 cbr 210 ------- 0 1.0 3.1 37 45
+ 0.75959 2 3 cbr 210 ------- 0 1.0 3.1 37 45
+ 0.76125 1 2 cbr 210 ------- 0 1.0 3.1 43 53
- 0.76125 1 2 cbr 210 ------- 0 1.0 3.1 43 53
r 0.76128 2 3 cbr 210 ------- 0 1.0 3.1 5 9
r 0.76334 1 2 cbr 210 ------- 0 1.0 3.1 38 46
+ 0.76334 2 3 cbr 210 ------- 0 1.0 3.1 38 46
+ 0.765 1 2 cbr 210 ------- 0 1.0 3.1 44 54
- 0.765 1 2 cbr 210 ------- 0 1.0 3.1 44 54
- 0.76648 2 3 cbr 210 ------- 0 1.0 3.1 9 13
r 0.76709 1 2 cbr 210 ------- 0 1.0 3.1 39 47
+ 0.76709 2 3 cbr 210 ------- 0 1.0 3.1 39 47
+ 0.76875 1 2 cbr 210 ------- 0 1.0 3.1 45 55
- 0.76875 1 2 cbr 210 ------- 0 1.0 3.1 45 55
r 0.76968 2 3 cbr 210 ------- 0 1.0 3.1 6 10
r 0.77084 1 2 cbr 210 ------- 0 1.0 3.1 40 48
+ 0.77084 2 3 cbr 210 ------- 0 1.0 3.1 40 48
+ 0.7725 1 2 cbr 210 ------- 0 1.0 3.1 46 56
- 0.7725 1 2 cbr 210 ------- 0 1.0 3.1 46 56
r 0.77459 1 2 cbr 210 ------- 0 1.0 3.1 41 51
+ 0.77459 2 3 cbr 210 ------- 0 1.0 3.1 41 51
- 0.77488 2 3 cbr 210 ------- 0 1.0 3.1 10 14
+ 0.77625 1 2 cbr 210 ------- 0 1.0 3.1 47 57
- 0.77625 1 2 cbr 210 ------- 0 1.0 3.1 47 57
r 0.7768 0 2 tcp 1040 ------- 0 0.0 3.0 5 49
+ 0.7768 2 3 tcp 1040 ------- 0 0.0 3.0 5 49
r 0.77808 2 3 cbr 210 ------- 0 1.0 3.1 7 11
r 0.77834 1 2 cbr 210 ------- 0 1.0 3.1 42 52
+ 0.77834 2 3 cbr 210 ------- 0 1.0 3.1 42 52
+ 0.78 1 2 cbr 210 ------- 0 1.0 3.1 48 58
- 0.78 1 2 cbr 210 ------- 0 1.0 3.1 48 58
r 0.78096 0 2 tcp 1040 ------- 0 0.0 3.0 6 50
+ 0.78096 2 3 tcp 1040 ------- 0 0.0 3.0 6 50
r 0.78209 1 2 cbr 210 ------- 0 1.0 3.1 43 53
+ 0.78209 2 3 cbr 210 ------- 0 1.0 3.1 43 53
- 0.78328 2 3 cbr 210 ------- 0 1.0 3.1 11 15
+ 0.78375 1 2 cbr 210 ------- 0 1.0 3.1 49 59
- 0.78375 1 2 cbr 210 ------- 0 1.0 3.1 49 59
r 0.78584 1 2 cbr 210 ------- 0 1.0 3.1 44 54
+ 0.78584 2 3 cbr 210 ------- 0 1.0 3.1 44 54
r 0.78648 2 3 cbr 210 ------- 0 1.0 3.1 8 12
+ 0.7875 1 2 cbr 210 ------- 0 1.0 3.1 50 60
- 0.7875 1 2 cbr 210 ------- 0 1.0 3.1 50 60
r 0.78959 1 2 cbr 210 ------- 0 1.0 3.1 45 55
+ 0.78959 2 3 cbr 210 ------- 0 1.0 3.1 45 55
+ 0.79125 1 2 cbr 210 ------- 0 1.0 3.1 51 61
- 0.79125 1 2 cbr 210 ------- 0 1.0 3.1 51 61
- 0.79168 2 3 cbr 210 ------- 0 1.0 3.1 12 16
r 0.79334 1 2 cbr 210 ------- 0 1.0 3.1 46 56
+ 0.79334 2 3 cbr 210 ------- 0 1.0 3.1 46 56
r 0.79488 2 3 cbr 210 ------- 0 1.0 3.1 9 13
+ 0.795 1 2 cbr 210 ------- 0 1.0 3.1 52 62
- 0.795 1 2 cbr 210 ------- 0 1.0 3.1 52 62
r 0.79709 1 2 cbr 210 ------- 0 1.0 3.1 47 57
+ 0.79709 2 3 cbr 210 ------- 0 1.0 3.1 47 57
+ 0.79875 1 2 cbr 210 ------- 0 1.0 3.1 53 63
- 0.79875 1 2 cbr 210 ------- 0 1.0 3.1 53 63
- 0.80008 2 3 cbr 210 ------- 0 1.0 3.1 13 17
r 0.80084 1 2 cbr 210 ------- 0 1.0 3.1 48 58
+ 0.80084 2 3 cbr 210 ------- 0 1.0 3.1 48 58
+ 0.8025 1 2 cbr 210 ------- 0 1.0 3.1 54 64
- 0.8025 1 2 cbr 210 ------- 0 1.0 3.1 54 64
r 0.80328 2 3 cbr 210 ------- 0 1.0 3.1 10 14
r 0.80459 1 2 cbr 210 ------- 0 1.0 3.1 49 59
+ 0.80459 2 3 cbr 210 ------- 0 1.0 3.1 49 59
+ 0.80625 1 2 cbr 210 ------- 0 1.0 3.1 55 65
- 0.80625 1 2 cbr 210 ------- 0 1.0 3.1 55 65
r 0.80834 1 2 cbr 210 ------- 0 1.0 3.1 50 60
+ 0.80834 2 3 cbr 210 ------- 0 1.0 3.1 50 60
- 0.80848 2 3 cbr 210 ------- 0 1.0 3.1 14 18
+ 0.81 1 2 cbr 210 ------- 0 1.0 3.1 56 66
- 0.81 1 2 cbr 210 ------- 0 1.0 3.1 56 66
r 0.81168 2 3 cbr 210 ------- 0 1.0 3.1 11 15
r 0.81209 1 2 cbr 210 ------- 0 1.0 3.1 51 61
+ 0.81209 2 3 cbr 210 ------- 0 1.0 3.1 51 61
+ 0.81375 1 2 cbr 210 ------- 0 1.0 3.1 57 67
- 0.81375 1 2 cbr 210 ------- 0 1.0 3.1 57 67
r 0.81584 1 2 cbr 210 ------- 0 1.0 3.1 52 62
+ 0.81584 2 3 cbr 210 ------- 0 1.0 3.1 52 62
- 0.81688 2 3 cbr 210 ------- 0 1.0 3.1 15 19
+ 0.8175 1 2 cbr 210 ------- 0 1.0 3.1 58 68
- 0.8175 1 2 cbr 210 ------- 0 1.0 3.1 58 68
r 0.81959 1 2 cbr 210 ------- 0 1.0 3.1 53 63
+ 0.81959 2 3 cbr 210 ------- 0 1.0 3.1 53 63
r 0.82008 2 3 cbr 210 ------- 0 1.0 3.1 12 16
+ 0.82125 1 2 cbr 210 ------- 0 1.0 3.1 59 69
- 0.82125 1 2 cbr 210 ------- 0 1.0 3.1 59 69
r 0.82334 1 2 cbr 210 ------- 0 1.0 3.1 54 64
+ 0.82334 2 3 cbr 210 ------- 0 1.0 3.1 54 64
+ 0.825 1 2 cbr 210 ------- 0 1.0 3.1 60 70
- 0.825 1 2 cbr 210 ------- 0 1.0 3.1 60 70
- 0.82528 2 3 cbr 210 ------- 0 1.0 3.1 16 20
r 0.82709 1 2 cbr 210 ------- 0 1.0 3.1 55 65
+ 0.82709 2 3 cbr 210 ------- 0 1.0 3.1 55 65
r 0.82848 2 3 cbr 210 ------- 0 1.0 3.1 13 17
+ 0.82875 1 2 cbr 210 ------- 0 1.0 3.1 61 71
- 0.82875 1 2 cbr 210 ------- 0 1.0 3.1 61 71
r 0.83084 1 2 cbr 210 ------- 0 1.0 3.1 56 66
+ 0.83084 2 3 cbr 210 ------- 0 1.0 3.1 56 66
+ 0.8325 1 2 cbr 210 ------- 0 1.0 3.1 62 72
- 0.8325 1 2 cbr 210 ------- 0 1.0 3.1 62 72
- 0.83368 2 3 cbr 210 ------- 0 1.0 3.1 17 21
r 0.83459 1 2 cbr 210 ------- 0 1.0 3.1 57 67
+ 0.83459 2 3 cbr 210 ------- 0 1.0 3.1 57 67
+ 0.83625 1 2 cbr 210 ------- 0 1.0 3.1 63 73
- 0.83625 1 2 cbr 210 ------- 0 1.0 3.1 63 73
r 0.83688 2 3 cbr 210 ------- 0 1.0 3.1 14 18
r 0.83834 1 2 cbr 210 ------- 0 1.0 3.1 58 68
+ 0.83834 2 3 cbr 210 ------- 0 1.0 3.1 58 68
+ 0.84 1 2 cbr 210 ------- 0 1.0 3.1 64 74
- 0.84 1 2 cbr 210 ------- 0 1.0 3.1 64 74
- 0.84208 2 3 cbr 210 ------- 0 1.0 3.1 18 22
r 0.84209 1 2 cbr 210 ------- 0 1.0 3.1 59 69
+ 0.84209 2 3 cbr 210 ------- 0 1.0 3.1 59 69
+ 0.84375 1 2 cbr 210 ------- 0 1.0 3.1 65 75
- 0.84375 1 2 cbr 210 ------- 0 1.0 3.1 65 75
r 0.84528 2 3 cbr 210 ------- 0 1.0 3.1 15 19
r 0.84584 1 2 cbr 210 ------- 0 1.0 3.1 60 70
+ 0.84584 2 3 cbr 210 ------- 0 1.0 3.1 60 70
+ 0.8475 1 2 cbr 210 ------- 0 1.0 3.1 66 76
- 0.8475 1 2 cbr 210 ------- 0 1.0 3.1 66 76
r 0.84959 1 2 cbr 210 ------- 0 1.0 3.1 61 71
+ 0.84959 2 3 cbr 210 ------- 0 1.0 3.1 61 71
- 0.85048 2 3 cbr 210 ------- 0 1.0 3.1 19 24
+ 0.85125 1 2 cbr 210 ------- 0 1.0 3.1 67 77
- 0.85125 1 2 cbr 210 ------- 0 1.0 3.1 67 77
r 0.85334 1 2 cbr 210 ------- 0 1.0 3.1 62 72
+ 0.85334 2 3 cbr 210 ------- 0 1.0 3.1 62 72
r 0.85368 2 3 cbr 210 ------- 0 1.0 3.1 16 20
+ 0.855 1 2 cbr 210 ------- 0 1.0 3.1 68 78
- 0.855 1 2 cbr 210 ------- 0 1.0 3.1 68 78
r 0.85709 1 2 cbr 210 ------- 0 1.0 3.1 63 73
+ 0.85709 2 3 cbr 210 ------- 0 1.0 3.1 63 73
+ 0.85875 1 2 cbr 210 ------- 0 1.0 3.1 69 79
- 0.85875 1 2 cbr 210 ------- 0 1.0 3.1 69 79
- 0.85888 2 3 cbr 210 ------- 0 1.0 3.1 20 25
r 0.86084 1 2 cbr 210 ------- 0 1.0 3.1 64 74
+ 0.86084 2 3 cbr 210 ------- 0 1.0 3.1 64 74
r 0.86208 2 3 cbr 210 ------- 0 1.0 3.1 17 21
+ 0.8625 1 2 cbr 210 ------- 0 1.0 3.1 70 80
- 0.8625 1 2 cbr 210 ------- 0 1.0 3.1 70 80
r 0.86459 1 2 cbr 210 ------- 0 1.0 3.1 65 75
+ 0.86459 2 3 cbr 210 ------- 0 1.0 3.1 65 75
+ 0.86625 1 2 cbr 210 ------- 0 1.0 3.1 71 81
- 0.86625 1 2 cbr 210 ------- 0 1.0 3.1 71 81
- 0.86728 2 3 cbr 210 ------- 0 1.0 3.1 21 26
r 0.86834 1 2 cbr 210 ------- 0 1.0 3.1 66 76
+ 0.86834 2 3 cbr 210 ------- 0 1.0 3.1 66 76
+ 0.87 1 2 cbr 210 ------- 0 1.0 3.1 72 82
- 0.87 1 2 cbr 210 ------- 0 1.0 3.1 72 82
r 0.87048 2 3 cbr 210 ------- 0 1.0 3.1 18 22
r 0.87209 1 2 cbr 210 ------- 0 1.0 3.1 67 77
+ 0.87209 2 3 cbr 210 ------- 0 1.0 3.1 67 77
d 0.87209 2 3 cbr 210 ------- 0 1.0 3.1 67 77
+ 0.87375 1 2 cbr 210 ------- 0 1.0 3.1 73 83
- 0.87375 1 2 cbr 210 ------- 0 1.0 3.1 73 83
- 0.87568 2 3 cbr 210 ------- 0 1.0 3.1 22 27
r 0.87584 1 2 cbr 210 ------- 0 1.0 3.1 68 78
+ 0.87584 2 3 cbr 210 ------- 0 1.0 3.1 68 78
+ 0.8775 1 2 cbr 210 ------- 0 1.0 3.1 74 84
- 0.8775 1 2 cbr 210 ------- 0 1.0 3.1 74 84
r 0.87888 2 3 cbr 210 ------- 0 1.0 3.1 19 24
r 0.87959 1 2 cbr 210 ------- 0 1.0 3.1 69 79
+ 0.87959 2 3 cbr 210 ------- 0 1.0 3.1 69 79
d 0.87959 2 3 cbr 210 ------- 0 1.0 3.1 69 79
+ 0.88125 1 2 cbr 210 ------- 0 1.0 3.1 75 85
- 0.88125 1 2 cbr 210 ------- 0 1.0 3.1 75 85
r 0.88334 1 2 cbr 210 ------- 0 1.0 3.1 70 80
+ 0.88334 2 3 cbr 210 ------- 0 1.0 3.1 70 80
d 0.88334 2 3 cbr 210 ------- 0 1.0 3.1 70 80
- 0.88408 2 3 cbr 210 ------- 0 1.0 3.1 23 28
+ 0.885 1 2 cbr 210 ------- 0 1.0 3.1 76 86
- 0.885 1 2 cbr 210 ------- 0 1.0 3.1 76 86
r 0.88709 1 2 cbr 210 ------- 0 1.0 3.1 71 81
+ 0.88709 2 3 cbr 210 ------- 0 1.0 3.1 71 81
r 0.88728 2 3 cbr 210 ------- 0 1.0 3.1 20 25
+ 0.88875 1 2 cbr 210 ------- 0 1.0 3.1 77 87
- 0.88875 1 2 cbr 210 ------- 0 1.0 3.1 77 87
r 0.89084 1 2 cbr 210 ------- 0 1.0 3.1 72 82
+ 0.89084 2 3 cbr 210 ------- 0 1.0 3.1 72 82
d 0.89084 2 3 cbr 210 ------- 0 1.0 3.1 72 82
- 0.89248 2 3 cbr 210 ------- 0 1.0 3.1 24 29
+ 0.8925 1 2 cbr 210 ------- 0 1.0 3.1 78 88
- 0.8925 1 2 cbr 210 ------- 0 1.0 3.1 78 88
r 0.89459 1 2 cbr 210 ------- 0 1.0 3.1 73 83
+ 0.89459 2 3 cbr 210 ------- 0 1.0 3.1 73 83
r 0.89568 2 3 cbr 210 ------- 0 1.0 3.1 21 26
+ 0.89625 1 2 cbr 210 ------- 0 1.0 3.1 79 89
- 0.89625 1 2 cbr 210 ------- 0 1.0 3.1 79 89
r 0.89834 1 2 cbr 210 ------- 0 1.0 3.1 74 84
+ 0.89834 2 3 cbr 210 ------- 0 1.0 3.1 74 84
d 0.89834 2 3 cbr 210 ------- 0 1.0 3.1 74 84
+ 0.9 1 2 cbr 210 ------- 0 1.0 3.1 80 90
- 0.9 1 2 cbr 210 ------- 0 1.0 3.1 80 90
- 0.90088 2 3 cbr 210 ------- 0 1.0 3.1 25 30
r 0.90209 1 2 cbr 210 ------- 0 1.0 3.1 75 85
+ 0.90209 2 3 cbr 210 ------- 0 1.0 3.1 75 85
+ 0.90375 1 2 cbr 210 ------- 0 1.0 3.1 81 91
- 0.90375 1 2 cbr 210 ------- 0 1.0 3.1 81 91
r 0.90408 2 3 cbr 210 ------- 0 1.0 3.1 22 27
r 0.90584 1 2 cbr 210 ------- 0 1.0 3.1 76 86
+ 0.90584 2 3 cbr 210 ------- 0 1.0 3.1 76 86
d 0.90584 2 3 cbr 210 ------- 0 1.0 3.1 76 86
+ 0.9075 1 2 cbr 210 ------- 0 1.0 3.1 82 92
- 0.9075 1 2 cbr 210 ------- 0 1.0 3.1 82 92
- 0.90928 2 3 cbr 210 ------- 0 1.0 3.1 26 31
r 0.90959 1 2 cbr 210 ------- 0 1.0 3.1 77 87
+ 0.90959 2 3 cbr 210 ------- 0 1.0 3.1 77 87
+ 0.91125 1 2 cbr 210 ------- 0 1.0 3.1 83 93
- 0.91125 1 2 cbr 210 ------- 0 1.0 3.1 83 93
r 0.91248 2 3 cbr 210 ------- 0 1.0 3.1 23 28
r 0.91334 1 2 cbr 210 ------- 0 1.0 3.1 78 88
+ 0.91334 2 3 cbr 210 ------- 0 1.0 3.1 78 88
d 0.91334 2 3 cbr 210 ------- 0 1.0 3.1 78 88
+ 0.915 1 2 cbr 210 ------- 0 1.0 3.1 84 94
- 0.915 1 2 cbr 210 ------- 0 1.0 3.1 84 94
r 0.91709 1 2 cbr 210 ------- 0 1.0 3.1 79 89
+ 0.91709 2 3 cbr 210 ------- 0 1.0 3.1 79 89
d 0.91709 2 3 cbr 210 ------- 0 1.0 3.1 79 89
- 0.91768 2 3 cbr 210 ------- 0 1.0 3.1 27 32
+ 0.91875 1 2 cbr 210 ------- 0 1.0 3.1 85 95
- 0.91875 1 2 cbr 210 ------- 0 1.0 3.1 85 95
r 0.92084 1 2 cbr 210 ------- 0 1.0 3.1 80 90
+ 0.92084 2 3 cbr 210 ------- 0 1.0 3.1 80 90
r 0.92088 2 3 cbr 210 ------- 0 1.0 3.1 24 29
+ 0.9225 1 2 cbr 210 ------- 0 1.0 3.1 86 96
- 0.9225 1 2 cbr 210 ------- 0 1.0 3.1 86 96
r 0.92459 1 2 cbr 210 ------- 0 1.0 3.1 81 91
+ 0.92459 2 3 cbr 210 ------- 0 1.0 3.1 81 91
d 0.92459 2 3 cbr 210 ------- 0 1.0 3.1 81 91
- 0.92608 2 3 cbr 210 ------- 0 1.0 3.1 28 33
+ 0.92625 1 2 cbr 210 ------- 0 1.0 3.1 87 97
- 0.92625 1 2 cbr 210 ------- 0 1.0 3.1 87 97
r 0.92834 1 2 cbr 210 ------- 0 1.0 3.1 82 92
+ 0.92834 2 3 cbr 210 ------- 0 1.0 3.1 82 92
r 0.92928 2 3 cbr 210 ------- 0 1.0 3.1 25 30
+ 0.93 1 2 cbr 210 ------- 0 1.0 3.1 88 98
- 0.93 1 2 cbr 210 ------- 0 1.0 3.1 88 98
r 0.93209 1 2 cbr 210 ------- 0 1.0 3.1 83 93
+ 0.93209 2 3 cbr 210 ------- 0 1.0 3.1 83 93
d 0.93209 2 3 cbr 210 ------- 0 1.0 3.1 83 93
+ 0.93375 1 2 cbr 210 ------- 0 1.0 3.1 89 99
- 0.93375 1 2 cbr 210 ------- 0 1.0 3.1 89 99
- 0.93448 2 3 cbr 210 ------- 0 1.0 3.1 29 34
r 0.93584 1 2 cbr 210 ------- 0 1.0 3.1 84 94
+ 0.93584 2 3 cbr 210 ------- 0 1.0 3.1 84 94
+ 0.9375 1 2 cbr 210 ------- 0 1.0 3.1 90 100
- 0.9375 1 2 cbr 210 ------- 0 1.0 3.1 90 100
r 0.93768 2 3 cbr 210 ------- 0 1.0 3.1 26 31
r 0.93959 1 2 cbr 210 ------- 0 1.0 3.1 85 95
+ 0.93959 2 3 cbr 210 ------- 0 1.0 3.1 85 95
d 0.93959 2 3 cbr 210 ------- 0 1.0 3.1 85 95
+ 0.94125 1 2 cbr 210 ------- 0 1.0 3.1 91 101
- 0.94125 1 2 cbr 210 ------- 0 1.0 3.1 91 101
- 0.94288 2 3 cbr 210 ------- 0 1.0 3.1 30 38
r 0.94334 1 2 cbr 210 ------- 0 1.0 3.1 86 96
+ 0.94334 2 3 cbr 210 ------- 0 1.0 3.1 86 96
+ 0.945 1 2 cbr 210 ------- 0 1.0 3.1 92 102
- 0.945 1 2 cbr 210 ------- 0 1.0 3.1 92 102
r 0.94608 2 3 cbr 210 ------- 0 1.0 3.1 27 32
r 0.94709 1 2 cbr 210 ------- 0 1.0 3.1 87 97
+ 0.94709 2 3 cbr 210 ------- 0 1.0 3.1 87 97
d 0.94709 2 3 cbr 210 ------- 0 1.0 3.1 87 97
+ 0.94875 1 2 cbr 210 ------- 0 1.0 3.1 93 103
- 0.94875 1 2 cbr 210 ------- 0 1.0 3.1 93 103
r 0.95084 1 2 cbr 210 ------- 0 1.0 3.1 88 98
+ 0.95084 2 3 cbr 210 ------- 0 1.0 3.1 88 98
d 0.95084 2 3 cbr 210 ------- 0 1.0 3.1 88 98
- 0.95128 2 3 tcp 1040 ------- 0 0.0 3.0 3 36
+ 0.9525 1 2 cbr 210 ------- 0 1.0 3.1 94 104
- 0.9525 1 2 cbr 210 ------- 0 1.0 3.1 94 104
r 0.95448 2 3 cbr 210 ------- 0 1.0 3.1 28 33
r 0.95459 1 2 cbr 210 ------- 0 1.0 3.1 89 99
+ 0.95459 2 3 cbr 210 ------- 0 1.0 3.1 89 99
+ 0.95625 1 2 cbr 210 ------- 0 1.0 3.1 95 105
- 0.95625 1 2 cbr 210 ------- 0 1.0 3.1 95 105
r 0.95834 1 2 cbr 210 ------- 0 1.0 3.1 90 100
+ 0.95834 2 3 cbr 210 ------- 0 1.0 3.1 90 100
d 0.95834 2 3 cbr 210 ------- 0 1.0 3.1 90 100
+ 0.96 1 2 cbr 210 ------- 0 1.0 3.1 96 106
- 0.96 1 2 cbr 210 ------- 0 1.0 3.1 96 106
r 0.96209 1 2 cbr 210 ------- 0 1.0 3.1 91 101
+ 0.96209 2 3 cbr 210 ------- 0 1.0 3.1 91 101
d 0.96209 2 3 cbr 210 ------- 0 1.0 3.1 91 101
r 0.96288 2 3 cbr 210 ------- 0 1.0 3.1 29 34
+ 0.96375 1 2 cbr 210 ------- 0 1.0 3.1 97 107
- 0.96375 1 2 cbr 210 ------- 0 1.0 3.1 97 107
r 0.96584 1 2 cbr 210 ------- 0 1.0 3.1 92 102
+ 0.96584 2 3 cbr 210 ------- 0 1.0 3.1 92 102
d 0.96584 2 3 cbr 210 ------- 0 1.0 3.1 92 102
+ 0.9675 1 2 cbr 210 ------- 0 1.0 3.1 98 108
- 0.9675 1 2 cbr 210 ------- 0 1.0 3.1 98 108
r 0.96959 1 2 cbr 210 ------- 0 1.0 3.1 93 103
+ 0.96959 2 3 cbr 210 ------- 0 1.0 3.1 93 103
d 0.96959 2 3 cbr 210 ------- 0 1.0 3.1 93 103
+ 0.97125 1 2 cbr 210 ------- 0 1.0 3.1 99 109
- 0.97125 1 2 cbr 210 ------- 0 1.0 3.1 99 109
r 0.97128 2 3 cbr 210 ------- 0 1.0 3.1 30 38
r 0.97334 1 2 cbr 210 ------- 0 1.0 3.1 94 104
+ 0.97334 2 3 cbr 210 ------- 0 1.0 3.1 94 104
d 0.97334 2 3 cbr 210 ------- 0 1.0 3.1 94 104
+ 0.975 1 2 cbr 210 ------- 0 1.0 3.1 100 110
- 0.975 1 2 cbr 210 ------- 0 1.0 3.1 100 110
r 0.97709 1 2 cbr 210 ------- 0 1.0 3.1 95 105
+ 0.97709 2 3 cbr 210 ------- 0 1.0 3.1 95 105
d 0.97709 2 3 cbr 210 ------- 0 1.0 3.1 95 105
+ 0.97875 1 2 cbr 210 ------- 0 1.0 3.1 101 111
- 0.97875 1 2 cbr 210 ------- 0 1.0 3.1 101 111
r 0.98084 1 2 cbr 210 ------- 0 1.0 3.1 96 106
+ 0.98084 2 3 cbr 210 ------- 0 1.0 3.1 96 106
d 0.98084 2 3 cbr 210 ------- 0 1.0 3.1 96 106
+ 0.9825 1 2 cbr 210 ------- 0 1.0 3.1 102 112
- 0.9825 1 2 cbr 210 ------- 0 1.0 3.1 102 112
r 0.98459 1 2 cbr 210 ------- 0 1.0 3.1 97 107
+ 0.98459 2 3 cbr 210 ------- 0 1.0 3.1 97 107
d 0.98459 2 3 cbr 210 ------- 0 1.0 3.1 97 107
+ 0.98625 1 2 cbr 210 ------- 0 1.0 3.1 103 113
- 0.98625 1 2 cbr 210 ------- 0 1.0 3.1 103 113
r 0.98834 1 2 cbr 210 ------- 0 1.0 3.1 98 108
+ 0.98834 2 3 cbr 210 ------- 0 1.0 3.1 98 108
d 0.98834 2 3 cbr 210 ------- 0 1.0 3.1 98 108
+ 0.99 1 2 cbr 210 ------- 0 1.0 3.1 104 114
- 0.99 1 2 cbr 210 ------- 0 1.0 3.1 104 114
r 0.99209 1 2 cbr 210 ------- 0 1.0 3.1 99 109
+ 0.99209 2 3 cbr 210 ------- 0 1.0 3.1 99 109
d 0.99209 2 3 cbr 210 ------- 0 1.0 3.1 99 109
- 0.99288 2 3 cbr 210 ------- 0 1.0 3.1 31 39
+ 0.99375 1 2 cbr 210 ------- 0 1.0 3.1 105 115
- 0.99375 1 2 cbr 210 ------- 0 1.0 3.1 105 115
r 0.99584 1 2 cbr 210 ------- 0 1.0 3.1 100 110
+ 0.99584 2 3 cbr 210 ------- 0 1.0 3.1 100 110
+ 0.9975 1 2 cbr 210 ------- 0 1.0 3.1 106 116
- 0.9975 1 2 cbr 210 ------- 0 1.0 3.1 106 116
r 0.99959 1 2 cbr 210 ------- 0 1.0 3.1 101 111
+ 0.99959 2 3 cbr 210 ------- 0 1.0 3.1 101 111
d 0.99959 2 3 cbr 210 ------- 0 1.0 3.1 101 111
+ 1.00125 1 2 cbr 210 ------- 0 1.0 3.1 107 117
- 1.00125 1 2 cbr 210 ------- 0 1.0 3.1 107 117
- 1.00128 2 3 tcp 1040 ------- 0 0.0 3.0 4 37
+ 1.00264 0 2 tcp 1040 ---A--- 0 0.0 3.0 3 118
- 1.00264 0 2 tcp 1040 ---A--- 0 0.0 3.0 3 118
r 1.00334 1 2 cbr 210 ------- 0 1.0 3.1 102 112
+ 1.00334 2 3 cbr 210 ------- 0 1.0 3.1 102 112
+ 1.005 1 2 cbr 210 ------- 0 1.0 3.1 108 119
- 1.005 1 2 cbr 210 ------- 0 1.0 3.1 108 119
r 1.00709 1 2 cbr 210 ------- 0 1.0 3.1 103 113
+ 1.00709 2 3 cbr 210 ------- 0 1.0 3.1 103 113
d 1.00709 2 3 cbr 210 ------- 0 1.0 3.1 103 113
+ 1.00875 1 2 cbr 210 ------- 0 1.0 3.1 109 120
- 1.00875 1 2 cbr 210 ------- 0 1.0 3.1 109 120
r 1.01084 1 2 cbr 210 ------- 0 1.0 3.1 104 114
+ 1.01084 2 3 cbr 210 ------- 0 1.0 3.1 104 114
d 1.01084 2 3 cbr 210 ------- 0 1.0 3.1 104 114
+ 1.0125 1 2 cbr 210 ------- 0 1.0 3.1 110 121
- 1.0125 1 2 cbr 210 ------- 0 1.0 3.1 110 121
r 1.01288 2 3 tcp 1040 ------- 0 0.0 3.0 3 36
+ 1.01288 3 2 ack 40 ------- 0 3.0 0.0 3 122
- 1.01288 3 2 ack 40 ------- 0 3.0 0.0 3 122
r 1.01459 1 2 cbr 210 ------- 0 1.0 3.1 105 115
+ 1.01459 2 3 cbr 210 ------- 0 1.0 3.1 105 115
d 1.01459 2 3 cbr 210 ------- 0 1.0 3.1 105 115
+ 1.01625 1 2 cbr 210 ------- 0 1.0 3.1 111 123
- 1.01625 1 2 cbr 210 ------- 0 1.0 3.1 111 123
r 1.01834 1 2 cbr 210 ------- 0 1.0 3.1 106 116
+ 1.01834 2 3 cbr 210 ------- 0 1.0 3.1 106 116
d 1.01834 2 3 cbr 210 ------- 0 1.0 3.1 106 116
+ 1.02 1 2 cbr 210 ------- 0 1.0 3.1 112 124
- 1.02 1 2 cbr 210 ------- 0 1.0 3.1 112 124
r 1.02128 2 3 cbr 210 ------- 0 1.0 3.1 31 39
r 1.02209 1 2 cbr 210 ------- 0 1.0 3.1 107 117
+ 1.02209 2 3 cbr 210 ------- 0 1.0 3.1 107 117
d 1.02209 2 3 cbr 210 ------- 0 1.0 3.1 107 117
+ 1.02375 1 2 cbr 210 ------- 0 1.0 3.1 113 125
- 1.02375 1 2 cbr 210 ------- 0 1.0 3.1 113 125
r 1.02584 1 2 cbr 210 ------- 0 1.0 3.1 108 119
+ 1.02584 2 3 cbr 210 ------- 0 1.0 3.1 108 119
d 1.02584 2 3 cbr 210 ------- 0 1.0 3.1 108 119
r 1.0268 0 2 tcp 1040 ---A--- 0 0.0 3.0 3 118
+ 1.0268 2 3 tcp 1040 ---A--- 0 0.0 3.0 3 118
d 1.0268 2 3 tcp 1040 ---A--- 0 0.0 3.0 3 118
+ 1.0275 1 2 cbr 210 ------- 0 1.0 3.1 114 126
- 1.0275 1 2 cbr 210 ------- 0 1.0 3.1 114 126
r 1.02959 1 2 cbr 210 ------- 0 1.0 3.1 109 120
+ 1.02959 2 3 cbr 210 ------- 0 1.0 3.1 109 120
d 1.02959 2 3 cbr 210 ------- 0 1.0 3.1 109 120
+ 1.03125 1 2 cbr 210 ------- 0 1.0 3.1 115 127
- 1.03125 1 2 cbr 210 ------- 0 1.0 3.1 115 127
r 1.03334 1 2 cbr 210 ------- 0 1.0 3.1 110 121
+ 1.03334 2 3 cbr 210 ------- 0 1.0 3.1 110 121
d 1.03334 2 3 cbr 210 ------- 0 1.0 3.1 110 121
r 1.03448 3 2 ack 40 ------- 0 3.0 0.0 3 122
+ 1.03448 2 0 ack 40 ------- 0 3.0 0.0 3 122
- 1.03448 2 0 ack 40 ------- 0 3.0 0.0 3 122
+ 1.035 1 2 cbr 210 ------- 0 1.0 3.1 116 128
- 1.035 1 2 cbr 210 ------- 0 1.0 3.1 116 128
r 1.03709 1 2 cbr 210 ------- 0 1.0 3.1 111 123
+ 1.03709 2 3 cbr 210 ------- 0 1.0 3.1 111 123
d 1.03709 2 3 cbr 210 ------- 0 1.0 3.1 111 123
+ 1.03875 1 2 cbr 210 ------- 0 1.0 3.1 117 129
- 1.03875 1 2 cbr 210 ------- 0 1.0 3.1 117 129
r 1.04084 1 2 cbr 210 ------- 0 1.0 3.1 112 124
+ 1.04084 2 3 cbr 210 ------- 0 1.0 3.1 112 124
d 1.04084 2 3 cbr 210 ------- 0 1.0 3.1 112 124
+ 1.0425 1 2 cbr 210 ------- 0 1.0 3.1 118 130
- 1.0425 1 2 cbr 210 ------- 0 1.0 3.1 118 130
- 1.04288 2 3 cbr 210 ------- 0 1.0 3.1 32 40
r 1.04459 1 2 cbr 210 ------- 0 1.0 3.1 113 125
+ 1.04459 2 3 cbr 210 ------- 0 1.0 3.1 113 125
+ 1.04625 1 2 cbr 210 ------- 0 1.0 3.1 119 131
- 1.04625 1 2 cbr 210 ------- 0 1.0 3.1 119 131
r 1.04834 1 2 cbr 210 ------- 0 1.0 3.1 114 126
+ 1.04834 2 3 cbr 210 ------- 0 1.0 3.1 114 126
d 1.04834 2 3 cbr 210 ------- 0 1.0 3.1 114 126
+ 1.05 1 2 cbr 210 ------- 0 1.0 3.1 120 132
- 1.05 1 2 cbr 210 ------- 0 1.0 3.1 120 132
- 1.05128 2 3 cbr 210 ------- 0 1.0 3.1 33 41
r 1.05209 1 2 cbr 210 ------- 0 1.0 3.1 115 127
+ 1.05209 2 3 cbr 210 ------- 0 1.0 3.1 115 127
+ 1.05375 1 2 cbr 210 ------- 0 1.0 3.1 121 133
- 1.05375 1 2 cbr 210 ------- 0 1.0 3.1 121 133
r 1.05464 2 0 ack 40 ------- 0 3.0 0.0 3 122
+ 1.05464 0 2 tcp 1040 ------- 0 0.0 3.0 4 134
- 1.05464 0 2 tcp 1040 ------- 0 0.0 3.0 4 134
+ 1.05464 0 2 tcp 1040 ------- 0 0.0 3.0 5 135
r 1.05584 1 2 cbr 210 ------- 0 1.0 3.1 116 128
+ 1.05584 2 3 cbr 210 ------- 0 1.0 3.1 116 128
d 1.05584 2 3 cbr 210 ------- 0 1.0 3.1 116 128
+ 1.0575 1 2 cbr 210 ------- 0 1.0 3.1 122 136
- 1.0575 1 2 cbr 210 ------- 0 1.0 3.1 122 136
- 1.0588 0 2 tcp 1040 ------- 0 0.0 3.0 5 135
r 1.05959 1 2 cbr 210 ------- 0 1.0 3.1 117 129
+ 1.05959 2 3 cbr 210 ------- 0 1.0 3.1 117 129
d 1.05959 2 3 cbr 210 ------- 0 1.0 3.1 117 129