V -t * -v 1.0a5 -a 0
A -t * -n 1 -p 0 -o 0x7fffffff -c 30 -a 1
A -t * -h 1 -m 1073741823 -s 0
n -t * -a 0 -s 0 -S UP -v circle -c black -i black
n -t * -a 1 -s 1 -S UP -v circle -c black -i black
n -t * -a 2 -s 2 -S UP -v circle -c black -i black
n -t * -a 3 -s 3 -S UP -v circle -c black -i black
l -t * -s 0 -d 2 -S UP -r 2000000 -D 0.02 -c black
l -t * -s 1 -d 2 -S UP -r 2000000 -D 0.02 -c black
l -t * -s 2 -d 3 -S UP -r 200000 -D 0.02 -c black
+ -t 0.5 -s 0 -d 2 -p tcp -e 40 -c 0 -i 0 -a 0 -x {0.0 3.0 0 ------- null}
- -t 0.5 -s 0 -d 2 -p tcp -e 40 -c 0 -i 0 -a 0 -x {0.0 3.0 0 ------- null}
h -t 0.5 -s 0 -d 2 -p tcp -e 40 -c 0 -i 0 -a 0 -x {0.0 3.0 -1 ------- null}
r -t 0.52016 -s 0 -d 2 -p tcp -e 40 -c 0 -i 0 -a 0 -x {0.0 3.0 0 ------- null}
+ -t 0.52016 -s 2 -d 3 -p tcp -e 40 -c 0 -i 0 -a 0 -x {0.0 3.0 0 ------- null}
- -t 0.52016 -s 2 -d 3 -p tcp -e 40 -c 0 -i 0 -a 0 -x {0.0 3.0 0 ------- null}
h -t 0.52016 -s 2 -d 3 -p tcp -e 40 -c 0 -i 0 -a 0 -x {0.0 3.0 -1 ------- null}
r -t 0.54176 -s 2 -d 3 -p tcp -e 40 -c 0 -i 0 -a 0 -x {0.0 3.0 0 ------- null}
+ -t 0.54176 -s 3 -d 2 -p ack -e 40 -c 0 -i 1 -a 0 -x {3.0 0.0 0 ------- null}
- -t 0.54176 -s 3 -d 2 -p ack -e 40 -c 0 -i 1 -a 0 -x {3.0 0.0 0 ------- null}
h -t 0.54176 -s 3 -d 2 -p ack -e 40 -c 0 -i 1 -a 0 -x {3.0 0.0 -1 ------- null}
r -t 0.56336 -s 3 -d 2 -p ack -e 40 -c 0 -i 1 -a 0 -x {3.0 0.0 0 ------- null}
+ -t 0.56336 -s 2 -d 0 -p ack -e 40 -c 0 -i 1 -a 0 -x {3.0 0.0 0 ------- null}
- -t 0.56336 -s 2 -d 0 -p ack -e 40 -c 0 -i 1 -a 0 -x {3.0 0.0 0 ------- null}
h -t 0.56336 -s 2 -d 0 -p ack -e 40 -c 0 -i 1 -a 0 -x {3.0 0.0 -1 ------- null}
r -t 0.58352 -s 2 -d 0 -p ack -e 40 -c 0 -i 1 -a 0 -x {3.0 0.0 0 ------- null}
+ -t 0.58352 -s 0 -d 2 -p tcp -e 1040 -c 0 -i 2 -a 0 -x {0.0 3.0 1 ------- null}
- -t 0.58352 -s 0 -d 2 -p tcp -e 1040 -c 0 -i 2 -a 0 -x {0.0 3.0 1 ------- null}
h -t 0.58352 -s 0 -d 2 -p tcp -e 1040 -c 0 -i 2 -a 0 -x {0.0 3.0 -1 ------- null}
+ -t 0.58352 -s 0 -d 2 -p tcp -e 1040 -c 0 -i 3 -a 0 -x {0.0 3.0 2 ------- null}
- -t 0.58768 -s 0 -d 2 -p tcp -e 1040 -c 0 -i 3 -a 0 -x {0.0 3.0 2 ------- null}
h -t 0.58768 -s 0 -d 2 -p tcp -e 1040 -c 0 -i 3 -a 0 -x {0.0 3.0 -1 ------- null}
+ -t 0.6 -s 1 -d 2 -p cbr -e 210 -c 0 -i 4 -a 0 -x {1.0 3.1 0 ------- null}
- -t 0.6 -s 1 -d 2 -p cbr -e 210 -c 0 -i 4 -a 0 -x {1.0 3.1 0 ------- null}
h -t 0.6 -s 1 -d 2 -p cbr -e 210 -c 0 -i 4 -a 0 -x {1.0 3.1 -1 ------- null}
+ -t 0.60375 -s 1 -d 2 -p cbr -e 210 -c 0 -i 5 -a 0 -x {1.0 3.1 1 ------- null}
- -t 0.60375 -s 1 -d 2 -p cbr -e 210 -c 0 -i 5 -a 0 -x {1.0 3.1 1 ------- null}
h -t 0.60375 -s 1 -d 2 -p cbr -e 210 -c 0 -i 5 -a 0 -x {1.0 3.1 -1 ------- null}
+ -t 0.6075 -s 1 -d 2 -p cbr -e 210 -c 0 -i 6 -a 0 -x {1.0 3.1 2 ------- null}
- -t 0.6075 -s 1 -d 2 -p cbr -e 210 -c 0 -i 6 -a 0 -x {1.0 3.1 2 ------- null}
h -t 0.6075 -s 1 -d 2 -p cbr -e 210 -c 0 -i 6 -a 0 -x {1.0 3.1 -1 ------- null}
r -t 0.60768 -s 0 -d 2 -p tcp -e 1040 -c 0 -i 2 -a 0 -x {0.0 3.0 1 ------- null}
+ -t 0.60768 -s 2 -d 3 -p tcp -e 1040 -c 0 -i 2 -a 0 -x {0.0 3.0 1 ------- null}
- -t 0.60768 -s 2 -d 3 -p tcp -e 1040 -c 0 -i 2 -a 0 -x {0.0 3.0 1 ------- null}
h -t 0.60768 -s 2 -d 3 -p tcp -e 1040 -c 0 -i 2 -a 0 -x {0.0 3.0 -1 ------- null}
+ -t 0.61125 -s 1 -d 2 -p cbr -e 210 -c 0 -i 7 -a 0 -x {1.0 3.1 3 ------- null}
- -t 0.61125 -s 1 -d 2 -p cbr -e 210 -c 0 -i 7 -a 0 -x {1.0 3.1 3 ------- null}
h -t 0.61125 -s 1 -d 2 -p cbr -e 210 -c 0 -i 7 -a 0 -x {1.0 3.1 -1 ------- null}
r -t 0.61184 -s 0 -d 2 -p tcp -e 1040 -c 0 -i 3 -a 0 -x {0.0 3.0 2 ------- null}
+ -t 0.61184 -s 2 -d 3 -p tcp -e 1040 -c 0 -i 3 -a 0 -x {0.0 3.0 2 ------- null}
+ -t 0.615 -s 1 -d 2 -p cbr -e 210 -c 0 -i 8 -a 0 -x {1.0 3.1 4 ------- null}
- -t 0.615 -s 1 -d 2 -p cbr -e 210 -c 0 -i 8 -a 0 -x {1.0 3.1 4 ------- null}
h -t 0.615 -s 1 -d 2 -p cbr -e 210 -c 0 -i 8 -a 0 -x {1.0 3.1 -1 ------- null}
+ -t 0.61875 -s 1 -d 2 -p cbr -e 210 -c 0 -i 9 -a 0 -x {1.0 3.1 5 ------- null}
- -t 0.61875 -s 1 -d 2 -p cbr -e 210 -c 0 -i 9 -a 0 -x {1.0 3.1 5 ------- null}
h -t 0.61875 -s 1 -d 2 -p cbr -e 210 -c 0 -i 9 -a 0 -x {1.0 3.1 -1 ------- null}
r -t 0.62084 -s 1 -d 2 -p cbr -e 210 -c 0 -i 4 -a 0 -x {1.0 3.1 0 ------- null}
+ -t 0.62084 -s 2 -d 3 -p cbr -e 210 -c 0 -i 4 -a 0 -x {1.0 3.1 0 ------- null}
+ -t 0.6225 -s 1 -d 2 -p cbr -e 210 -c 0 -i 10 -a 0 -x {1.0 3.1 6 ------- null}
- -t 0.6225 -s 1 -d 2 -p cbr -e 210 -c 0 -i 10 -a 0 -x {1.0 3.1 6 ------- null}
h -t 0.6225 -s 1 -d 2 -p cbr -e 210 -c 0 -i 10 -a 0 -x {1.0 3.1 -1 ------- null}
r -t 0.62459 -s 1 -d 2 -p cbr -e 210 -c 0 -i 5 -a 0 -x {1.0 3.1 1 ------- null}
+ -t 0.62459 -s 2 -d 3 -p cbr -e 210 -c 0 -i 5 -a 0 -x {1.0 3.1 1 ------- null}
+ -t 0.62625 -s 1 -d 2 -p cbr -e 210 -c 0 -i 11 -a 0 -x {1.0 3.1 7 ------- null}
- -t 0.62625 -s 1 -d 2 -p cbr -e 210 -c 0 -i 11 -a 0 -x {1.0 3.1 7 ------- null}
h -t 0.62625 -s 1 -d 2 -p cbr -e 210 -c 0 -i 11 -a 0 -x {1.0 3.1 -1 ------- null}
r -t 0.62834 -s 1 -d 2 -p cbr -e 210 -c 0 -i 6 -a 0 -x {1.0 3.1 2 ------- null}
+ -t 0.62834 -s 2 -d 3 -p cbr -e 210 -c 0 -i 6 -a 0 -x {1.0 3.1 2 ------- null}
+ -t 0.63 -s 1 -d 2 -p cbr -e 210 -c 0 -i 12 -a 0 -x {1.0 3.1 8 ------- null}
- -t 0.63 -s 1 -d 2 -p cbr -e 210 -c 0 -i 12 -a 0 -x {1.0 3.1 8 ------- null}
h -t 0.63 -s 1 -d 2 -p cbr -e 210 -c 0 -i 12 -a 0 -x {1.0 3.1 -1 ------- null}
r -t 0.63209 -s 1 -d 2 -p cbr -e 210 -c 0 -i 7 -a 0 -x {1.0 3.1 3 ------- null}
+ -t 0.63209 -s 2 -d 3 -p cbr -e 210 -c 0 -i 7 -a 0 -x {1.0 3.1 3 ------- null}
+ -t 0.63375 -s 1 -d 2 -p cbr -e 210 -c 0 -i 13 -a 0 -x {1.0 3.1 9 ------- null}
- -t 0.63375 -s 1 -d 2 -p cbr -e 210 -c 0 -i 13 -a 0 -x {1.0 3.1 9 ------- null}
h -t 0.63375 -s 1 -d 2 -p cbr -e 210 -c 0 -i 13 -a 0 -x {1.0 3.1 -1 ------- null}
r -t 0.63584 -s 1 -d 2 -p cbr -e 210 -c 0 -i 8 -a 0 -x {1.0 3.1 4 ------- null}
+ -t 0.63584 -s 2 -d 3 -p cbr -e 210 -c 0 -i 8 -a 0 -x {1.0 3.1 4 ------- null}
+ -t 0.6375 -s 1 -d 2 -p cbr -e 210 -c 0 -i 14 -a 0 -x {1.0 3.1 10 ------- null}
- -t 0.6375 -s 1 -d 2 -p cbr -e 210 -c 0 -i 14 -a 0 -x {1.0 3.1 10 ------- null}
h -t 0.6375 -s 1 -d 2 -p cbr -e 210 -c 0 -i 14 -a 0 -x {1.0 3.1 -1 ------- null}
r -t 0.63959 -s 1 -d 2 -p cbr -e 210 -c 0 -i 9 -a 0 -x {1.0 3.1 5 ------- null}
+ -t 0.63959 -s 2 -d 3 -p cbr -e 210 -c 0 -i 9 -a 0 -x {1.0 3.1 5 ------- null}
+ -t 0.64125 -s 1 -d 2 -p cbr -e 210 -c 0 -i 15 -a 0 -x {1.0 3.1 11 ------- null}
- -t 0.64125 -s 1 -d 2 -p cbr -e 210 -c 0 -i 15 -a 0 -x {1.0 3.1 11 ------- null}
h -t 0.64125 -s 1 -d 2 -p cbr -e 210 -c 0 -i 15 -a 0 -x {1.0 3.1 -1 ------- null}
r -t 0.64334 -s 1 -d 2 -p cbr -e 210 -c 0 -i 10 -a 0 -x {1.0 3.1 6 ------- null}
+ -t 0.64334 -s 2 -d 3 -p cbr -e 210 -c 0 -i 10 -a 0 -x {1.0 3.1 6 ------- null}
+ -t 0.645 -s 1 -d 2 -p cbr -e 210 -c 0 -i 16 -a 0 -x {1.0 3.1 12 ------- null}
- -t 0.645 -s 1 -d 2 -p cbr -e 210 -c 0 -i 16 -a 0 -x {1.0 3.1 12 ------- null}
h -t 0.645 -s 1 -d 2 -p cbr -e 210 -c 0 -i 16 -a 0 -x {1.0 3.1 -1 ------- null}
r -t 0.64709 -s 1 -d 2 -p cbr -e 210 -c 0 -i 11 -a 0 -x {1.0 3.1 7 ------- null}
+ -t 0.64709 -s 2 -d 3 -p cbr -e 210 -c 0 -i 11 -a 0 -x {1.0 3.1 7 ------- null}
+ -t 0.64875 -s 1 -d 2 -p cbr -e 210 -c 0 -i 17 -a 0 -x {1.0 3.1 13 ------- null}
- -t 0.64875 -s 1 -d 2 -p cbr -e 210 -c 0 -i 17 -a 0 -x {1.0 3.1 13 ------- null}
h -t 0.64875 -s 1 -d 2 -p cbr -e 210 -c 0 -i 17 -a 0 -x {1.0 3.1 -1 ------- null}
- -t 0.64928 -s 2 -d 3 -p tcp -e 1040 -c 0 -i 3 -a 0 -x {0.0 3.0 2 ------- null}
h -t 0.64928 -s 2 -d 3 -p tcp -e 1040 -c 0 -i 3 -a 0 -x {0.0 3.0 -1 ------- null}
r -t 0.65084 -s 1 -d 2 -p cbr -e 210 -c 0 -i 12 -a 0 -x {1.0 3.1 8 ------- null}
+ -t 0.65084 -s 2 -d 3 -p cbr -e 210 -c 0 -i 12 -a 0 -x {1.0 3.1 8 ------- null}
+ -t 0.6525 -s 1 -d 2 -p cbr -e 210 -c 0 -i 18 -a 0 -x {1.0 3.1 14 ------- null}
- -t 0.6525 -s 1 -d 2 -p cbr -e 210 -c 0 -i 18 -a 0 -x {1.0 3.1 14 ------- null}
h -t 0.6525 -s 1 -d 2 -p cbr -e 210 -c 0 -i 18 -a 0 -x {1.0 3.1 -1 ------- null}
r -t 0.65459 -s 1 -d 2 -p cbr -e 210 -c 0 -i 13 -a 0 -x {1.0 3.1 9 ------- null}
+ -t 0.65459 -s 2 -d 3 -p cbr -e 210 -c 0 -i 13 -a 0 -x {1.0 3.1 9 ------- null}
+ -t 0.65625 -s 1 -d 2 -p cbr -e 210 -c 0 -i 19 -a 0 -x {1.0 3.1 15 ------- null}
- -t 0.65625 -s 1 -d 2 -p cbr -e 210 -c 0 -i 19 -a 0 -x {1.0 3.1 15 ------- null}
h -t 0.65625 -s 1 -d 2 -p cbr -e 210 -c 0 -i 19 -a 0 -x {1.0 3.1 -1 ------- null}
r -t 0.65834 -s 1 -d 2 -p cbr -e 210 -c 0 -i 14 -a 0 -x {1.0 3.1 10 ------- null}
+ -t 0.65834 -s 2 -d 3 -p cbr -e 210 -c 0 -i 14 -a 0 -x {1.0 3.1 10 ------- null}
+ -t 0.66 -s 1 -d 2 -p cbr -e 210 -c 0 -i 20 -a 0 -x {1.0 3.1 16 ------- null}
- -t 0.66 -s 1 -d 2 -p cbr -e 210 -c 0 -i 20 -a 0 -x {1.0 3.1 16 ------- null}
h -t 0.66 -s 1 -d 2 -p cbr -e 210 -c 0 -i 20 -a 0 -x {1.0 3.1 -1 ------- null}
r -t 0.66209 -s 1 -d 2 -p cbr -e 210 -c 0 -i 15 -a 0 -x {1.0 3.1 11 ------- null}
+ -t 0.66209 -s 2 -d 3 -p cbr -e 210 -c 0 -i 15 -a 0 -x {1.0 3.1 11 ------- null}
+ -t 0.663750000000001 -s 1 -d 2 -p cbr -e 210 -c 0 -i 21 -a 0 -x {1.0 3.1 17 ------- null}
- -t 0.663750000000001 -s 1 -d 2 -p cbr -e 210 -c 0 -i 21 -a 0 -x {1.0 3.1 17 ------- null}
h -t 0.663750000000001 -s 1 -d 2 -p cbr -e 210 -c 0 -i 21 -a 0 -x {1.0 3.1 -1 ------- null}
r -t 0.66584 -s 1 -d 2 -p cbr -e 210 -c 0 -i 16 -a 0 -x {1.0 3.1 12 ------- null}
+ -t 0.66584 -s 2 -d 3 -p cbr -e 210 -c 0 -i 16 -a 0 -x {1.0 3.1 12 ------- null}
+ -t 0.667500000000001 -s 1 -d 2 -p cbr -e 210 -c 0 -i 22 -a 0 -x {1.0 3.1 18 ------- null}
- -t 0.667500000000001 -s 1 -d 2 -p cbr -e 210 -c 0 -i 22 -a 0 -x {1.0 3.1 18 ------- null}
h -t 0.667500000000001 -s 1 -d 2 -p cbr -e 210 -c 0 -i 22 -a 0 -x {1.0 3.1 -1 ------- null}
r -t 0.66928 -s 2 -d 3 -p tcp -e 1040 -c 0 -i 2 -a 0 -x {0.0 3.0 1 ------- null}
+ -t 0.66928 -s 3 -d 2 -p ack -e 40 -c 0 -i 23 -a 0 -x {3.0 0.0 1 ------- null}
- -t 0.66928 -s 3 -d 2 -p ack -e 40 -c 0 -i 23 -a 0 -x {3.0 0.0 1 ------- null}
h -t 0.66928 -s 3 -d 2 -p ack -e 40 -c 0 -i 23 -a 0 -x {3.0 0.0 -1 ------- null}
r -t 0.66959 -s 1 -d 2 -p cbr -e 210 -c 0 -i 17 -a 0 -x {1.0 3.1 13 ------- null}
+ -t 0.66959 -s 2 -d 3 -p cbr -e 210 -c 0 -i 17 -a 0 -x {1.0 3.1 13 ------- null}
+ -t 0.671250000000001 -s 1 -d 2 -p cbr -e 210 -c 0 -i 24 -a 0 -x {1.0 3.1 19 ------- null}
- -t 0.671250000000001 -s 1 -d 2 -p cbr -e 210 -c 0 -i 24 -a 0 -x {1.0 3.1 19 ------- null}
h -t 0.671250000000001 -s 1 -d 2 -p cbr -e 210 -c 0 -i 24 -a 0 -x {1.0 3.1 -1 ------- null}
r -t 0.67334 -s 1 -d 2 -p cbr -e 210 -c 0 -i 18 -a 0 -x {1.0 3.1 14 ------- null}
+ -t 0.67334 -s 2 -d 3 -p cbr -e 210 -c 0 -i 18 -a 0 -x {1.0 3.1 14 ------- null}
+ -t 0.675000000000001 -s 1 -d 2 -p cbr -e 210 -c 0 -i 25 -a 0 -x {1.0 3.1 20 ------- null}
- -t 0.675000000000001 -s 1 -d 2 -p cbr -e 210 -c 0 -i 25 -a 0 -x {1.0 3.1 20 ------- null}
h -t 0.675000000000001 -s 1 -d 2 -p cbr -e 210 -c 0 -i 25 -a 0 -x {1.0 3.1 -1 ------- null}
r -t 0.67709 -s 1 -d 2 -p cbr -e 210 -c 0 -i 19 -a 0 -x {1.0 3.1 15 ------- null}
+ -t 0.67709 -s 2 -d 3 -p cbr -e 210 -c 0 -i 19 -a 0 -x {1.0 3.1 15 ------- null}
+ -t 0.678750000000001 -s 1 -d 2 -p cbr -e 210 -c 0 -i 26 -a 0 -x {1.0 3.1 21 ------- null}
- -t 0.678750000000001 -s 1 -d 2 -p cbr -e 210 -c 0 -i 26 -a 0 -x {1.0 3.1 21 ------- null}
h -t 0.678750000000001 -s 1 -d 2 -p cbr -e 210 -c 0 -i 26 -a 0 -x {1.0 3.1 -1 ------- null}
r -t 0.68084 -s 1 -d 2 -p cbr -e 210 -c 0 -i 20 -a 0 -x {1.0 3.1 16 ------- null}
+ -t 0.68084 -s 2 -d 3 -p cbr -e 210 -c 0 -i 20 -a 0 -x {1.0 3.1 16 ------- null}
+ -t 0.682500000000001 -s 1 -d 2 -p cbr -e 210 -c 0 -i 27 -a 0 -x {1.0 3.1 22 ------- null}
- -t 0.682500000000001 -s 1 -d 2 -p cbr -e 210 -c 0 -i 27 -a 0 -x {1.0 3.1 22 ------- null}
h -t 0.682500000000001 -s 1 -d 2 -p cbr -e 210 -c 0 -i 27 -a 0 -x {1.0 3.1 -1 ------- null}
r -t 0.68459 -s 1 -d 2 -p cbr -e 210 -c 0 -i 21 -a 0 -x {1.0 3.1 17 ------- null}
+ -t 0.68459 -s 2 -d 3 -p cbr -e 210 -c 0 -i 21 -a 0 -x {1.0 3.1 17 ------- null}
+ -t 0.686250000000001 -s 1 -d 2 -p cbr -e 210 -c 0 -i 28 -a 0 -x {1.0 3.1 23 ------- null}
- -t 0.686250000000001 -s 1 -d 2 -p cbr -e 210 -c 0 -i 28 -a 0 -x {1.0 3.1 23 ------- null}
h -t 0.686250000000001 -s 1 -d 2 -p cbr -e 210 -c 0 -i 28 -a 0 -x {1.0 3.1 -1 ------- null}
r -t 0.688340000000001 -s 1 -d 2 -p cbr -e 210 -c 0 -i 22 -a 0 -x {1.0 3.1 18 ------- null}
+ -t 0.688340000000001 -s 2 -d 3 -p cbr -e 210 -c 0 -i 22 -a 0 -x {1.0 3.1 18 ------- null}
+ -t 0.690000000000001 -s 1 -d 2 -p cbr -e 210 -c 0 -i 29 -a 0 -x {1.0 3.1 24 ------- null}
- -t 0.690000000000001 -s 1 -d 2 -p cbr -e 210 -c 0 -i 29 -a 0 -x {1.0 3.1 24 ------- null}
h -t 0.690000000000001 -s 1 -d 2 -p cbr -e 210 -c 0 -i 29 -a 0 -x {1.0 3.1 -1 ------- null}
- -t 0.69088 -s 2 -d 3 -p cbr -e 210 -c 0 -i 4 -a 0 -x {1.0 3.1 0 ------- null}
h -t 0.69088 -s 2 -d 3 -p cbr -e 210 -c 0 -i 4 -a 0 -x {1.0 3.1 -1 ------- null}
r -t 0.69088 -s 3 -d 2 -p ack -e 40 -c 0 -i 23 -a 0 -x {3.0 0.0 1 ------- null}
+ -t 0.69088 -s 2 -d 0 -p ack -e 40 -c 0 -i 23 -a 0 -x {3.0 0.0 1 ------- null}
- -t 0.69088 -s 2 -d 0 -p ack -e 40 -c 0 -i 23 -a 0 -x {3.0 0.0 1 ------- null}
h -t 0.69088 -s 2 -d 0 -p ack -e 40 -c 0 -i 23 -a 0 -x {3.0 0.0 -1 ------- null}
r -t 0.692090000000001 -s 1 -d 2 -p cbr -e 210 -c 0 -i 24 -a 0 -x {1.0 3.1 19 ------- null}
+ -t 0.692090000000001 -s 2 -d 3 -p cbr -e 210 -c 0 -i 24 -a 0 -x {1.0 3.1 19 ------- null}
+ -t 0.693750000000001 -s 1 -d 2 -p cbr -e 210 -c 0 -i 30 -a 0 -x {1.0 3.1 25 ------- null}
- -t 0.693750000000001 -s 1 -d 2 -p cbr -e 210 -c 0 -i 30 -a 0 -x {1.0 3.1 25 ------- null}
h -t 0.693750000000001 -s 1 -d 2 -p cbr -e 210 -c 0 -i 30 -a 0 -x {1.0 3.1 -1 ------- null}
r -t 0.695840000000001 -s 1 -d 2 -p cbr -e 210 -c 0 -i 25 -a 0 -x {1.0 3.1 20 ------- null}
+ -t 0.695840000000001 -s 2 -d 3 -p cbr -e 210 -c 0 -i 25 -a 0 -x {1.0 3.1 20 ------- null}
+ -t 0.697500000000001 -s 1 -d 2 -p cbr -e 210 -c 0 -i 31 -a 0 -x {1.0 3.1 26 ------- null}
- -t 0.697500000000001 -s 1 -d 2 -p cbr -e 210 -c 0 -i 31 -a 0 -x {1.0 3.1 26 ------- null}
h -t 0.697500000000001 -s 1 -d 2 -p cbr -e 210 -c 0 -i 31 -a 0 -x {1.0 3.1 -1 ------- null}
- -t 0.69928 -s 2 -d 3 -p cbr -e 210 -c 0 -i 5 -a 0 -x {1.0 3.1 1 ------- null}
h -t 0.69928 -s 2 -d 3 -p cbr -e 210 -c 0 -i 5 -a 0 -x {1.0 3.1 -1 ------- null}
r -t 0.699590000000001 -s 1 -d 2 -p cbr -e 210 -c 0 -i 26 -a 0 -x {1.0 3.1 21 ------- null}
+ -t 0.699590000000001 -s 2 -d 3 -p cbr -e 210 -c 0 -i 26 -a 0 -x {1.0 3.1 21 ------- null}
+ -t 0.701250000000001 -s 1 -d 2 -p cbr -e 210 -c 0 -i 32 -a 0 -x {1.0 3.1 27 ------- null}
- -t 0.701250000000001 -s 1 -d 2 -p cbr -e 210 -c 0 -i 32 -a 0 -x {1.0 3.1 27 ------- null}
h -t 0.701250000000001 -s 1 -d 2 -p cbr -e 210 -c 0 -i 32 -a 0 -x {1.0 3.1 -1 ------- null}
r -t 0.703340000000001 -s 1 -d 2 -p cbr -e 210 -c 0 -i 27 -a 0 -x {1.0 3.1 22 ------- null}
+ -t 0.703340000000001 -s 2 -d 3 -p cbr -e 210 -c 0 -i 27 -a 0 -x {1.0 3.1 22 ------- null}
+ -t 0.705000000000001 -s 1 -d 2 -p cbr -e 210 -c 0 -i 33 -a 0 -x {1.0 3.1 28 ------- null}
- -t 0.705000000000001 -s 1 -d 2 -p cbr -e 210 -c 0 -i 33 -a 0 -x {1.0 3.1 28 ------- null}
h -t 0.705000000000001 -s 1 -d 2 -p cbr -e 210 -c 0 -i 33 -a 0 -x {1.0 3.1 -1 ------- null}
r -t 0.707090000000001 -s 1 -d 2 -p cbr -e 210 -c 0 -i 28 -a 0 -x {1.0 3.1 23 ------- null}
+ -t 0.707090000000001 -s 2 -d 3 -p cbr -e 210 -c 0 -i 28 -a 0 -x {1.0 3.1 23 ------- null}
- -t 0.70768 -s 2 -d 3 -p cbr -e 210 -c 0 -i 6 -a 0 -x {1.0 3.1 2 ------- null}
h -t 0.70768 -s 2 -d 3 -p cbr -e 210 -c 0 -i 6 -a 0 -x {1.0 3.1 -1 ------- null}
+ -t 0.708750000000001 -s 1 -d 2 -p cbr -e 210 -c 0 -i 34 -a 0 -x {1.0 3.1 29 ------- null}
- -t 0.708750000000001 -s 1 -d 2 -p cbr -e 210 -c 0 -i 34 -a 0 -x {1.0 3.1 29 ------- null}
h -t 0.708750000000001 -s 1 -d 2 -p cbr -e 210 -c 0 -i 34 -a 0 -x {1.0 3.1 -1 ------- null}
r -t 0.710840000000001 -s 1 -d 2 -p cbr -e 210 -c 0 -i 29 -a 0 -x {1.0 3.1 24 ------- null}
+ -t 0.710840000000001 -s 2 -d 3 -p cbr -e 210 -c 0 -i 29 -a 0 -x {1.0 3.1 24 ------- null}
r -t 0.71088 -s 2 -d 3 -p tcp -e 1040 -c 0 -i 3 -a 0 -x {0.0 3.0 2 ------- null}
+ -t 0.71088 -s 3 -d 2 -p ack -e 40 -c 0 -i 35 -a 0 -x {3.0 0.0 2 ------- null}
- -t 0.71088 -s 3 -d 2 -p ack -e 40 -c 0 -i 35 -a 0 -x {3.0 0.0 2 ------- null}
h -t 0.71088 -s 3 -d 2 -p ack -e 40 -c 0 -i 35 -a 0 -x {3.0 0.0 -1 ------- null}
r -t 0.71104 -s 2 -d 0 -p ack -e 40 -c 0 -i 23 -a 0 -x {3.0 0.0 1 ------- null}
+ -t 0.71104 -s 0 -d 2 -p tcp -e 1040 -c 0 -i 36 -a 0 -x {0.0 3.0 3 ------- null}
- -t 0.71104 -s 0 -d 2 -p tcp -e 1040 -c 0 -i 36 -a 0 -x {0.0 3.0 3 ------- null}
h -t 0.71104 -s 0 -d 2 -p tcp -e 1040 -c 0 -i 36 -a 0 -x {0.0 3.0 -1 ------- null}
+ -t 0.71104 -s 0 -d 2 -p tcp -e 1040 -c 0 -i 37 -a 0 -x {0.0 3.0 4 ------- null}
+ -t 0.712500000000001 -s 1 -d 2 -p cbr -e 210 -c 0 -i 38 -a 0 -x {1.0 3.1 30 ------- null}
- -t 0.712500000000001 -s 1 -d 2 -p cbr -e 210 -c 0 -i 38 -a 0 -x {1.0 3.1 30 ------- null}
h -t 0.712500000000001 -s 1 -d 2 -p cbr -e 210 -c 0 -i 38 -a 0 -x {1.0 3.1 -1 ------- null}
r -t 0.714590000000001 -s 1 -d 2 -p cbr -e 210 -c 0 -i 30 -a 0 -x {1.0 3.1 25 ------- null}
+ -t 0.714590000000001 -s 2 -d 3 -p cbr -e 210 -c 0 -i 30 -a 0 -x {1.0 3.1 25 ------- null}
- -t 0.7152 -s 0 -d 2 -p tcp -e 1040 -c 0 -i 37 -a 0 -x {0.0 3.0 4 ------- null}
h -t 0.7152 -s 0 -d 2 -p tcp -e 1040 -c 0 -i 37 -a 0 -x {0.0 3.0 -1 ------- null}
- -t 0.71608 -s 2 -d 3 -p cbr -e 210 -c 0 -i 7 -a 0 -x {1.0 3.1 3 ------- null}
h -t 0.71608 -s 2 -d 3 -p cbr -e 210 -c 0 -i 7 -a 0 -x {1.0 3.1 -1 ------- null}
+ -t 0.716250000000001 -s 1 -d 2 -p cbr -e 210 -c 0 -i 39 -a 0 -x {1.0 3.1 31 ------- null}
- -t 0.716250000000001 -s 1 -d 2 -p cbr -e 210 -c 0 -i 39 -a 0 -x {1.0 3.1 31 ------- null}
h -t 0.716250000000001 -s 1 -d 2 -p cbr -e 210 -c 0 -i 39 -a 0 -x {1.0 3.1 -1 ------- null}
r -t 0.718340000000001 -s 1 -d 2 -p cbr -e 210 -c 0 -i 31 -a 0 -x {1.0 3.1 26 ------- null}
+ -t 0.718340000000001 -s 2 -d 3 -p cbr -e 210 -c 0 -i 31 -a 0 -x {1.0 3.1 26 ------- null}
r -t 0.71928 -s 2 -d 3 -p cbr -e 210 -c 0 -i 4 -a 0 -x {1.0 3.1 0 ------- null}
+ -t 0.720000000000001 -s 1 -d 2 -p cbr -e 210 -c 0 -i 40 -a 0 -x {1.0 3.1 32 ------- null}
- -t 0.720000000000001 -s 1 -d 2 -p cbr -e 210 -c 0 -i 40 -a 0 -x {1.0 3.1 32 ------- null}
h -t 0.720000000000001 -s 1 -d 2 -p cbr -e 210 -c 0 -i 40 -a 0 -x {1.0 3.1 -1 ------- null}
r -t 0.722090000000001 -s 1 -d 2 -p cbr -e 210 -c 0 -i 32 -a 0 -x {1.0 3.1 27 ------- null}
+ -t 0.722090000000001 -s 2 -d 3 -p cbr -e 210 -c 0 -i 32 -a 0 -x {1.0 3.1 27 ------- null}
+ -t 0.723750000000001 -s 1 -d 2 -p cbr -e 210 -c 0 -i 41 -a 0 -x {1.0 3.1 33 ------- null}
- -t 0.723750000000001 -s 1 -d 2 -p cbr -e 210 -c 0 -i 41 -a 0 -x {1.0 3.1 33 ------- null}
h -t 0.723750000000001 -s 1 -d 2 -p cbr -e 210 -c 0 -i 41 -a 0 -x {1.0 3.1 -1 ------- null}
- -t 0.72448 -s 2 -d 3 -p cbr -e 210 -c 0 -i 8 -a 0 -x {1.0 3.1 4 ------- null}
h -t 0.72448 -s 2 -d 3 -p cbr -e 210 -c 0 -i 8 -a 0 -x {1.0 3.1 -1 ------- null}
r -t 0.725840000000001 -s 1 -d 2 -p cbr -e 210 -c 0 -i 33 -a 0 -x {1.0 3.1 28 ------- null}
+ -t 0.725840000000001 -s 2 -d 3 -p cbr -e 210 -c 0 -i 33 -a 0 -x {1.0 3.1 28 ------- null}
+ -t 0.727500000000001 -s 1 -d 2 -p cbr -e 210 -c 0 -i 42 -a 0 -x {1.0 3.1 34 ------- null}
- -t 0.727500000000001 -s 1 -d 2 -p cbr -e 210 -c 0 -i 42 -a 0 -x {1.0 3.1 34 ------- null}
h -t 0.727500000000001 -s 1 -d 2 -p cbr -e 210 -c 0 -i 42 -a 0 -x {1.0 3.1 -1 ------- null}
r -t 0.72768 -s 2 -d 3 -p cbr -e 210 -c 0 -i 5 -a 0 -x {1.0 3.1 1 ------- null}
r -t 0.729590000000001 -s 1 -d 2 -p cbr -e 210 -c 0 -i 34 -a 0 -x {1.0 3.1 29 ------- null}
+ -t 0.729590000000001 -s 2 -d 3 -p cbr -e 210 -c 0 -i 34 -a 0 -x {1.0 3.1 29 ------- null}
+ -t 0.731250000000001 -s 1 -d 2 -p cbr -e 210 -c 0 -i 43 -a 0 -x {1.0 3.1 35 ------- null}
- -t 0.731250000000001 -s 1 -d 2 -p cbr -e 210 -c 0 -i 43 -a 0 -x {1.0 3.1 35 ------- null}
h -t 0.731250000000001 -s 1 -d 2 -p cbr -e 210 -c 0 -i 43 -a 0 -x {1.0 3.1 -1 ------- null}
r -t 0.73248 -s 3 -d 2 -p ack -e 40 -c 0 -i 35 -a 0 -x {3.0 0.0 2 ------- null}
+ -t 0.73248 -s 2 -d 0 -p ack -e 40 -c 0 -i 35 -a 0 -x {3.0 0.0 2 ------- null}
- -t 0.73248 -s 2 -d 0 -p ack -e 40 -c 0 -i 35 -a 0 -x {3.0 0.0 2 ------- null}
h -t 0.73248 -s 2 -d 0 -p ack -e 40 -c 0 -i 35 -a 0 -x {3.0 0.0 -1 ------- null}
- -t 0.73288 -s 2 -d 3 -p cbr -e 210 -c 0 -i 9 -a 0 -x {1.0 3.1 5 ------- null}
h -t 0.73288 -s 2 -d 3 -p cbr -e 210 -c 0 -i 9 -a 0 -x {1.0 3.1 -1 ------- null}
r -t 0.733340000000001 -s 1 -d 2 -p cbr -e 210 -c 0 -i 38 -a 0 -x {1.0 3.1 30 ------- null}
+ -t 0.733340000000001 -s 2 -d 3 -p cbr -e 210 -c 0 -i 38 -a 0 -x {1.0 3.1 30 ------- null}
+ -t 0.735000000000001 -s 1 -d 2 -p cbr -e 210 -c 0 -i 44 -a 0 -x {1.0 3.1 36 ------- null}
- -t 0.735000000000001 -s 1 -d 2 -p cbr -e 210 -c 0 -i 44 -a 0 -x {1.0 3.1 36 ------- null}
h -t 0.735000000000001 -s 1 -d 2 -p cbr -e 210 -c 0 -i 44 -a 0 -x {1.0 3.1 -1 ------- null}
r -t 0.7352 -s 0 -d 2 -p tcp -e 1040 -c 0 -i 36 -a 0 -x {0.0 3.0 3 ------- null}
+ -t 0.7352 -s 2 -d 3 -p tcp -e 1040 -c 0 -i 36 -a 0 -x {0.0 3.0 3 ------- null}
r -t 0.73608 -s 2 -d 3 -p cbr -e 210 -c 0 -i 6 -a 0 -x {1.0 3.1 2 ------- null}
r -t 0.737090000000001 -s 1 -d 2 -p cbr -e 210 -c 0 -i 39 -a 0 -x {1.0 3.1 31 ------- null}
+ -t 0.737090000000001 -s 2 -d 3 -p cbr -e 210 -c 0 -i 39 -a 0 -x {1.0 3.1 31 ------- null}
+ -t 0.738750000000001 -s 1 -d 2 -p cbr -e 210 -c 0 -i 45 -a 0 -x {1.0 3.1 37 ------- null}
- -t 0.738750000000001 -s 1 -d 2 -p cbr -e 210 -c 0 -i 45 -a 0 -x {1.0 3.1 37 ------- null}
h -t 0.738750000000001 -s 1 -d 2 -p cbr -e 210 -c 0 -i 45 -a 0 -x {1.0 3.1 -1 ------- null}
r -t 0.73936 -s 0 -d 2 -p tcp -e 1040 -c 0 -i 37 -a 0 -x {0.0 3.0 4 ------- null}
+ -t 0.73936 -s 2 -d 3 -p tcp -e 1040 -c 0 -i 37 -a 0 -x {0.0 3.0 4 ------- null}
r -t 0.740840000000001 -s 1 -d 2 -p cbr -e 210 -c 0 -i 40 -a 0 -x {1.0 3.1 32 ------- null}
+ -t 0.740840000000001 -s 2 -d 3 -p cbr -e 210 -c 0 -i 40 -a 0 -x {1.0 3.1 32 ------- null}
- -t 0.741279999999999 -s 2 -d 3 -p cbr -e 210 -c 0 -i 10 -a 0 -x {1.0 3.1 6 ------- null}
h -t 0.741279999999999 -s 2 -d 3 -p cbr -e 210 -c 0 -i 10 -a 0 -x {1.0 3.1 -1 ------- null}
+ -t 0.742500000000001 -s 1 -d 2 -p cbr -e 210 -c 0 -i 46 -a 0 -x {1.0 3.1 38 ------- null}
- -t 0.742500000000001 -s 1 -d 2 -p cbr -e 210 -c 0 -i 46 -a 0 -x {1.0 3.1 38 ------- null}
h -t 0.742500000000001 -s 1 -d 2 -p cbr -e 210 -c 0 -i 46 -a 0 -x {1.0 3.1 -1 ------- null}
r -t 0.74448 -s 2 -d 3 -p cbr -e 210 -c 0 -i 7 -a 0 -x {1.0 3.1 3 ------- null}
r -t 0.744590000000001 -s 1 -d 2 -p cbr -e 210 -c 0 -i 41 -a 0 -x {1.0 3.1 33 ------- null}
+ -t 0.744590000000001 -s 2 -d 3 -p cbr -e 210 -c 0 -i 41 -a 0 -x {1.0 3.1 33 ------- null}
+ -t 0.746250000000001 -s 1 -d 2 -p cbr -e 210 -c 0 -i 47 -a 0 -x {1.0 3.1 39 ------- null}
- -t 0.746250000000001 -s 1 -d 2 -p cbr -e 210 -c 0 -i 47 -a 0 -x {1.0 3.1 39 ------- null}
h -t 0.746250000000001 -s 1 -d 2 -p cbr -e 210 -c 0 -i 47 -a 0 -x {1.0 3.1 -1 ------- null}
r -t 0.748340000000001 -s 1 -d 2 -p cbr -e 210 -c 0 -i 42 -a 0 -x {1.0 3.1 34 ------- null}
+ -t 0.748340000000001 -s 2 -d 3 -p cbr -e 210 -c 0 -i 42 -a 0 -x {1.0 3.1 34 ------- null}
- -t 0.749679999999999 -s 2 -d 3 -p cbr -e 210 -c 0 -i 11 -a 0 -x {1.0 3.1 7 ------- null}
h -t 0.749679999999999 -s 2 -d 3 -p cbr -e 210 -c 0 -i 11 -a 0 -x {1.0 3.1 -1 ------- null}
+ -t 0.750000000000001 -s 1 -d 2 -p cbr -e 210 -c 0 -i 48 -a 0 -x {1.0 3.1 40 ------- null}
- -t 0.750000000000001 -s 1 -d 2 -p cbr -e 210 -c 0 -i 48 -a 0 -x {1.0 3.1 40 ------- null}
h -t 0.750000000000001 -s 1 -d 2 -p cbr -e 210 -c 0 -i 48 -a 0 -x {1.0 3.1 -1 ------- null}
r -t 0.752090000000001 -s 1 -d 2 -p cbr -e 210 -c 0 -i 43 -a 0 -x {1.0 3.1 35 ------- null}
+ -t 0.752090000000001 -s 2 -d 3 -p cbr -e 210 -c 0 -i 43 -a 0 -x {1.0 3.1 35 ------- null}
r -t 0.75264 -s 2 -d 0 -p ack -e 40 -c 0 -i 35 -a 0 -x {3.0 0.0 2 ------- null}
+ -t 0.75264 -s 0 -d 2 -p tcp -e 1040 -c 0 -i 49 -a 0 -x {0.0 3.0 5 ------- null}
- -t 0.75264 -s 0 -d 2 -p tcp -e 1040 -c 0 -i 49 -a 0 -x {0.0 3.0 5 ------- null}
h -t 0.75264 -s 0 -d 2 -p tcp -e 1040 -c 0 -i 49 -a 0 -x {0.0 3.0 -1 ------- null}
+ -t 0.75264 -s 0 -d 2 -p tcp -e 1040 -c 0 -i 50 -a 0 -x {0.0 3.0 6 ------- null}
r -t 0.75288 -s 2 -d 3 -p cbr -e 210 -c 0 -i 8 -a 0 -x {1.0 3.1 4 ------- null}
+ -t 0.753750000000001 -s 1 -d 2 -p cbr -e 210 -c 0 -i 51 -a 0 -x {1.0 3.1 41 ------- null}
- -t 0.753750000000001 -s 1 -d 2 -p cbr -e 210 -c 0 -i 51 -a 0 -x {1.0 3.1 41 ------- null}
h -t 0.753750000000001 -s 1 -d 2 -p cbr -e 210 -c 0 -i 51 -a 0 -x {1.0 3.1 -1 ------- null}
r -t 0.755840000000001 -s 1 -d 2 -p cbr -e 210 -c 0 -i 44 -a 0 -x {1.0 3.1 36 ------- null}
+ -t 0.755840000000001 -s 2 -d 3 -p cbr -e 210 -c 0 -i 44 -a 0 -x {1.0 3.1 36 ------- null}
- -t 0.7568 -s 0 -d 2 -p tcp -e 1040 -c 0 -i 50 -a 0 -x {0.0 3.0 6 ------- null}
h -t 0.7568 -s 0 -d 2 -p tcp -e 1040 -c 0 -i 50 -a 0 -x {0.0 3.0 -1 ------- null}
+ -t 0.757500000000001 -s 1 -d 2 -p cbr -e 210 -c 0 -i 52 -a 0 -x {1.0 3.1 42 ------- null}
- -t 0.757500000000001 -s 1 -d 2 -p cbr -e 210 -c 0 -i 52 -a 0 -x {1.0 3.1 42 ------- null}
h -t 0.757500000000001 -s 1 -d 2 -p cbr -e 210 -c 0 -i 52 -a 0 -x {1.0 3.1 -1 ------- null}
- -t 0.758079999999999 -s 2 -d 3 -p cbr -e 210 -c 0 -i 12 -a 0 -x {1.0 3.1 8 ------- null}
h -t 0.758079999999999 -s 2 -d 3 -p cbr -e 210 -c 0 -i 12 -a 0 -x {1.0 3.1 -1 ------- null}
r -t 0.759590000000001 -s 1 -d 2 -p cbr -e 210 -c 0 -i 45 -a 0 -x {1.0 3.1 37 ------- null}
+ -t 0.759590000000001 -s 2 -d 3 -p cbr -e 210 -c 0 -i 45 -a 0 -x {1.0 3.1 37 ------- null}
+ -t 0.761250000000001 -s 1 -d 2 -p cbr -e 210 -c 0 -i 53 -a 0 -x {1.0 3.1 43 ------- null}
- -t 0.761250000000001 -s 1 -d 2 -p cbr -e 210 -c 0 -i 53 -a 0 -x {1.0 3.1 43 ------- null}
h -t 0.761250000000001 -s 1 -d 2 -p cbr -e 210 -c 0 -i 53 -a 0 -x {1.0 3.1 -1 ------- null}
r -t 0.76128 -s 2 -d 3 -p cbr -e 210 -c 0 -i 9 -a 0 -x {1.0 3.1 5 ------- null}
r -t 0.763340000000001 -s 1 -d 2 -p cbr -e 210 -c 0 -i 46 -a 0 -x {1.0 3.1 38 ------- null}
+ -t 0.763340000000001 -s 2 -d 3 -p cbr -e 210 -c 0 -i 46 -a 0 -x {1.0 3.1 38 ------- null}
+ -t 0.765000000000001 -s 1 -d 2 -p cbr -e 210 -c 0 -i 54 -a 0 -x {1.0 3.1 44 ------- null}
- -t 0.765000000000001 -s 1 -d 2 -p cbr -e 210 -c 0 -i 54 -a 0 -x {1.0 3.1 44 ------- null}
h -t 0.765000000000001 -s 1 -d 2 -p cbr -e 210 -c 0 -i 54 -a 0 -x {1.0 3.1 -1 ------- null}
- -t 0.766479999999999 -s 2 -d 3 -p cbr -e 210 -c 0 -i 13 -a 0 -x {1.0 3.1 9 ------- null}
h -t 0.766479999999999 -s 2 -d 3 -p cbr -e 210 -c 0 -i 13 -a 0 -x {1.0 3.1 -1 ------- null}
r -t 0.767090000000001 -s 1 -d 2 -p cbr -e 210 -c 0 -i 47 -a 0 -x {1.0 3.1 39 ------- null}
+ -t 0.767090000000001 -s 2 -d 3 -p cbr -e 210 -c 0 -i 47 -a 0 -x {1.0 3.1 39 ------- null}
+ -t 0.768750000000001 -s 1 -d 2 -p cbr -e 210 -c 0 -i 55 -a 0 -x {1.0 3.1 45 ------- null}
- -t 0.768750000000001 -s 1 -d 2 -p cbr -e 210 -c 0 -i 55 -a 0 -x {1.0 3.1 45 ------- null}
h -t 0.768750000000001 -s 1 -d 2 -p cbr -e 210 -c 0 -i 55 -a 0 -x {1.0 3.1 -1 ------- null}
r -t 0.769679999999999 -s 2 -d 3 -p cbr -e 210 -c 0 -i 10 -a 0 -x {1.0 3.1 6 ------- null}
r -t 0.770840000000001 -s 1 -d 2 -p cbr -e 210 -c 0 -i 48 -a 0 -x {1.0 3.1 40 ------- null}
+ -t 0.770840000000001 -s 2 -d 3 -p cbr -e 210 -c 0 -i 48 -a 0 -x {1.0 3.1 40 ------- null}
+ -t 0.772500000000001 -s 1 -d 2 -p cbr -e 210 -c 0 -i 56 -a 0 -x {1.0 3.1 46 ------- null}
- -t 0.772500000000001 -s 1 -d 2 -p cbr -e 210 -c 0 -i 56 -a 0 -x {1.0 3.1 46 ------- null}
h -t 0.772500000000001 -s 1 -d 2 -p cbr -e 210 -c 0 -i 56 -a 0 -x {1.0 3.1 -1 ------- null}
r -t 0.774590000000001 -s 1 -d 2 -p cbr -e 210 -c 0 -i 51 -a 0 -x {1.0 3.1 41 ------- null}
+ -t 0.774590000000001 -s 2 -d 3 -p cbr -e 210 -c 0 -i 51 -a 0 -x {1.0 3.1 41 ------- null}
- -t 0.774879999999999 -s 2 -d 3 -p cbr -e 210 -c 0 -i 14 -a 0 -x {1.0 3.1 10 ------- null}
h -t 0.774879999999999 -s 2 -d 3 -p cbr -e 210 -c 0 -i 14 -a 0 -x {1.0 3.1 -1 ------- null}
+ -t 0.776250000000001 -s 1 -d 2 -p cbr -e 210 -c 0 -i 57 -a 0 -x {1.0 3.1 47 ------- null}
- -t 0.776250000000001 -s 1 -d 2 -p cbr -e 210 -c 0 -i 57 -a 0 -x {1.0 3.1 47 ------- null}
h -t 0.776250000000001 -s 1 -d 2 -p cbr -e 210 -c 0 -i 57 -a 0 -x {1.0 3.1 -1 ------- null}
r -t 0.7768 -s 0 -d 2 -p tcp -e 1040 -c 0 -i 49 -a 0 -x {0.0 3.0 5 ------- null}
+ -t 0.7768 -s 2 -d 3 -p tcp -e 1040 -c 0 -i 49 -a 0 -x {0.0 3.0 5 ------- null}
r -t 0.778079999999999 -s 2 -d 3 -p cbr -e 210 -c 0 -i 11 -a 0 -x {1.0 3.1 7 ------- null}
r -t 0.778340000000001 -s 1 -d 2 -p cbr -e 210 -c 0 -i 52 -a 0 -x {1.0 3.1 42 ------- null}
+ -t 0.778340000000001 -s 2 -d 3 -p cbr -e 210 -c 0 -i 52 -a 0 -x {1.0 3.1 42 ------- null}
+ -t 0.780000000000001 -s 1 -d 2 -p cbr -e 210 -c 0 -i 58 -a 0 -x {1.0 3.1 48 ------- null}
- -t 0.780000000000001 -s 1 -d 2 -p cbr -e 210 -c 0 -i 58 -a 0 -x {1.0 3.1 48 ------- null}
h -t 0.780000000000001 -s 1 -d 2 -p cbr -e 210 -c 0 -i 58 -a 0 -x {1.0 3.1 -1 ------- null}
r -t 0.78096 -s 0 -d 2 -p tcp -e 1040 -c 0 -i 50 -a 0 -x {0.0 3.0 6 ------- null}
+ -t 0.78096 -s 2 -d 3 -p tcp -e 1040 -c 0 -i 50 -a 0 -x {0.0 3.0 6 ------- null}
r -t 0.782090000000001 -s 1 -d 2 -p cbr -e 210 -c 0 -i 53 -a 0 -x {1.0 3.1 43 ------- null}
+ -t 0.782090000000001 -s 2 -d 3 -p cbr -e 210 -c 0 -i 53 -a 0 -x {1.0 3.1 43 ------- null}
- -t 0.783279999999999 -s 2 -d 3 -p cbr -e 210 -c 0 -i 15 -a 0 -x {1.0 3.1 11 ------- null}
h -t 0.783279999999999 -s 2 -d 3 -p cbr -e 210 -c 0 -i 15 -a 0 -x {1.0 3.1 -1 ------- null}
+ -t 0.783750000000002 -s 1 -d 2 -p cbr -e 210 -c 0 -i 59 -a 0 -x {1.0 3.1 49 ------- null}
- -t 0.783750000000002 -s 1 -d 2 -p cbr -e 210 -c 0 -i 59 -a 0 -x {1.0 3.1 49 ------- null}
h -t 0.783750000000002 -s 1 -d 2 -p cbr -e 210 -c 0 -i 59 -a 0 -x {1.0 3.1 -1 ------- null}
r -t 0.785840000000001 -s 1 -d 2 -p cbr -e 210 -c 0 -i 54 -a 0 -x {1.0 3.1 44 ------- null}
+ -t 0.785840000000001 -s 2 -d 3 -p cbr -e 210 -c 0 -i 54 -a 0 -x {1.0 3.1 44 ------- null}
r -t 0.786479999999999 -s 2 -d 3 -p cbr -e 210 -c 0 -i 12 -a 0 -x {1.0 3.1 8 ------- null}
+ -t 0.787500000000002 -s 1 -d 2 -p cbr -e 210 -c 0 -i 60 -a 0 -x {1.0 3.1 50 ------- null}