+ 0.1 1 0 ping 64 ------- 0 1.0 4.0 -1 0
- 0.1 1 0 ping 64 ------- 0 1.0 4.0 -1 0
r 0.110512 1 0 ping 64 ------- 0 1.0 4.0 -1 0
+ 0.110512 0 4 ping 64 ------- 0 1.0 4.0 -1 0
- 0.110512 0 4 ping 64 ------- 0 1.0 4.0 -1 0
r 0.211024 0 4 ping 64 ------- 0 1.0 4.0 -1 0
+ 0.211024 4 0 ping 64 ------- 0 4.0 1.0 -1 1
- 0.211024 4 0 ping 64 ------- 0 4.0 1.0 -1 1
+ 0.3 2 0 ping 64 ------- 0 2.0 5.0 -1 2
- 0.3 2 0 ping 64 ------- 0 2.0 5.0 -1 2
r 0.310512 2 0 ping 64 ------- 0 2.0 5.0 -1 2
+ 0.310512 0 5 ping 64 ------- 0 2.0 5.0 -1 2
- 0.310512 0 5 ping 64 ------- 0 2.0 5.0 -1 2
r 0.311536 4 0 ping 64 ------- 0 4.0 1.0 -1 1
+ 0.311536 0 1 ping 64 ------- 0 4.0 1.0 -1 1
- 0.311536 0 1 ping 64 ------- 0 4.0 1.0 -1 1
r 0.322048 0 1 ping 64 ------- 0 4.0 1.0 -1 1
r 0.411024 0 5 ping 64 ------- 0 2.0 5.0 -1 2
+ 0.411024 5 0 ping 64 ------- 0 5.0 2.0 -1 3
- 0.411024 5 0 ping 64 ------- 0 5.0 2.0 -1 3
+ 0.5 3 0 ping 64 ------- 0 3.0 6.0 -1 4
- 0.5 3 0 ping 64 ------- 0 3.0 6.0 -1 4
r 0.511536 5 0 ping 64 ------- 0 5.0 2.0 -1 3
+ 0.511536 0 2 ping 64 ------- 0 5.0 2.0 -1 3
- 0.511536 0 2 ping 64 ------- 0 5.0 2.0 -1 3
r 0.522048 0 2 ping 64 ------- 0 5.0 2.0 -1 3
r 0.600512 3 0 ping 64 ------- 0 3.0 6.0 -1 4
+ 0.600512 0 6 ping 64 ------- 0 3.0 6.0 -1 4
d 0.600512 0 6 ping 64 ------- 0 3.0 6.0 -1 4
+ 1 4 0 ping 64 ------- 0 4.0 1.0 -1 5
- 1 4 0 ping 64 ------- 0 4.0 1.0 -1 5
r 1.100512 4 0 ping 64 ------- 0 4.0 1.0 -1 5
+ 1.100512 0 1 ping 64 ------- 0 4.0 1.0 -1 5
- 1.100512 0 1 ping 64 ------- 0 4.0 1.0 -1 5
r 1.111024 0 1 ping 64 ------- 0 4.0 1.0 -1 5
+ 1.111024 1 0 ping 64 ------- 0 1.0 4.0 -1 6
- 1.111024 1 0 ping 64 ------- 0 1.0 4.0 -1 6
r 1.121536 1 0 ping 64 ------- 0 1.0 4.0 -1 6
+ 1.121536 0 4 ping 64 ------- 0 1.0 4.0 -1 6
- 1.121536 0 4 ping 64 ------- 0 1.0 4.0 -1 6
+ 1.2 5 0 ping 64 ------- 0 5.0 2.0 -1 7
- 1.2 5 0 ping 64 ------- 0 5.0 2.0 -1 7
r 1.222048 0 4 ping 64 ------- 0 1.0 4.0 -1 6
r 1.300512 5 0 ping 64 ------- 0 5.0 2.0 -1 7
+ 1.300512 0 2 ping 64 ------- 0 5.0 2.0 -1 7
- 1.300512 0 2 ping 64 ------- 0 5.0 2.0 -1 7
r 1.311024 0 2 ping 64 ------- 0 5.0 2.0 -1 7
+ 1.311024 2 0 ping 64 ------- 0 2.0 5.0 -1 8
- 1.311024 2 0 ping 64 ------- 0 2.0 5.0 -1 8
r 1.321536 2 0 ping 64 ------- 0 2.0 5.0 -1 8
+ 1.321536 0 5 ping 64 ------- 0 2.0 5.0 -1 8
- 1.321536 0 5 ping 64 ------- 0 2.0 5.0 -1 8
+ 1.4 6 0 ping 64 ------- 0 6.0 3.0 -1 9
- 1.4 6 0 ping 64 ------- 0 6.0 3.0 -1 9
r 1.422048 0 5 ping 64 ------- 0 2.0 5.0 -1 8
r 1.490512 6 0 ping 64 ------- 0 6.0 3.0 -1 9
+ 1.490512 0 3 ping 64 ------- 0 6.0 3.0 -1 9
- 1.490512 0 3 ping 64 ------- 0 6.0 3.0 -1 9
r 1.591024 0 3 ping 64 ------- 0 6.0 3.0 -1 9
+ 1.591024 3 0 ping 64 ------- 0 3.0 6.0 -1 10
- 1.591024 3 0 ping 64 ------- 0 3.0 6.0 -1 10
r 1.691536 3 0 ping 64 ------- 0 3.0 6.0 -1 10
+ 1.691536 0 6 ping 64 ------- 0 3.0 6.0 -1 10
d 1.691536 0 6 ping 64 ------- 0 3.0 6.0 -1 10
